
     Program BANDS v.7.4 starts on 19Nov2025 at 22:54:54 

     This program is part of the open-source Quantum ESPRESSO suite
     for quantum simulation of materials; please cite
         "P. Giannozzi et al., J. Phys.:Condens. Matter 21 395502 (2009);
         "P. Giannozzi et al., J. Phys.:Condens. Matter 29 465901 (2017);
         "P. Giannozzi et al., J. Chem. Phys. 152 154105 (2020);
          URL http://www.quantum-espresso.org", 
     in publications or presentations arising from this work. More details at
     http://www.quantum-espresso.org/quote

     Parallel version (MPI), running on     1 processors

     MPI processes distributed on     1 nodes
     433 MiB available memory on the printing compute node when the environment starts


     Reading xml data from directory:

     ./output/diamond.save/

     IMPORTANT: XC functional enforced from input :
     Exchange-correlation= PBE
                           (   1   4   3   4   0   0   0)
     Any further DFT definition will be discarded
     Please, verify this is what you really want


     G-vector sticks info
     --------------------
     sticks:   dense  smooth     PW     G-vecs:    dense   smooth      PW
     Sum         511     511    151                 7727     7727    1243

     Using Slab Decomposition

     Reading collected, re-writing distributed wavefunctions
     high-symmetry point:  0.0000 0.0000 0.0000   x coordinate   0.0000
     high-symmetry point:  0.5000 0.0000 0.5000   x coordinate   0.7071
     high-symmetry point:  0.3750 0.3750 0.7500   x coordinate   1.1748
     high-symmetry point:  0.0000 0.0000 0.0000   x coordinate   2.0934

     Plottable bands (eV) written to file bands.dat.gnu
     Bands written to file bands.dat

 **************************************************************************

                    xk=(   0.00000,   0.00000,   0.00000  )

     point group O_h (m-3m) 
     there are 10 classes
     the character table:

       E     8C3   3C2   6C4   6C2'  i     8S6   3s_h  6S4   6s_d 
A_1g   1.00  1.00  1.00  1.00  1.00  1.00  1.00  1.00  1.00  1.00
A_2g   1.00  1.00  1.00 -1.00 -1.00  1.00  1.00  1.00 -1.00 -1.00
E_g    2.00 -1.00  2.00  0.00  0.00  2.00 -1.00  2.00  0.00  0.00
T_1g   3.00  0.00 -1.00  1.00 -1.00  3.00  0.00 -1.00  1.00 -1.00
T_2g   3.00  0.00 -1.00 -1.00  1.00  3.00  0.00 -1.00 -1.00  1.00
A_1u   1.00  1.00  1.00  1.00  1.00 -1.00 -1.00 -1.00 -1.00 -1.00
A_2u   1.00  1.00  1.00 -1.00 -1.00 -1.00 -1.00 -1.00  1.00  1.00
E_u    2.00 -1.00  2.00  0.00  0.00 -2.00  1.00 -2.00  0.00  0.00
T_1u   3.00  0.00 -1.00  1.00 -1.00 -3.00  0.00  1.00 -1.00  1.00
T_2u   3.00  0.00 -1.00 -1.00  1.00 -3.00  0.00  1.00  1.00 -1.00

     the symmetry operations in each class and the name of the first element:

     E        1
                                                                 
     8C3     17   19   20   18   24   21   22   23
                                                                 
     3C2      2    4    3
                                                                 
     6C4      7    8   15   16   12   11
                                                                 
     6C2'     5    6   14   13   10    9
                                                                 
     i       25
                                                                 
     8S6     41   43   44   42   48   45   46   47
                                                                 
     3s_h    26   28   27
                                                                 
     6S4     31   32   39   40   36   35
                                                                 
     6s_d    29   30   38   37   34   33
                                                                 

     Band symmetry, O_h (m-3m)  point group:

     e(  1 -  1) =     -8.12969  eV     1   --> A_1g G_1   G_1+
     e(  2 -  4) =     13.36051  eV     3   --> T_2g G_25' G_5+
     e(  5 -  6) =     18.98504  eV     2   -->   ?

 **************************************************************************

 **************************************************************************

                    xk=(   0.01667,   0.00000,   0.01667  )

     point group C_2v (mm2) 
     there are  4 classes
     the character table:

       E     C2    s_v   s_v' 
A_1    1.00  1.00  1.00  1.00
A_2    1.00  1.00 -1.00 -1.00
B_1    1.00 -1.00  1.00 -1.00
B_2    1.00 -1.00 -1.00  1.00

     the symmetry operations in each class and the name of the first element:

     E        1
                                                                 
     C2       2
                                                                 
     s_v      3
                                                                 
     s_v'     4
                                                                 

     Band symmetry, C_2v (mm2)  point group:

     e(  1 -  1) =     -8.12456  eV     1   --> A_1  D_1  S_1  
     e(  2 -  2) =     13.32876  eV     1   --> B_2  D_4  S_4  
     e(  3 -  3) =     13.33830  eV     1   --> A_1  D_1  S_1  
     e(  4 -  4) =     13.35736  eV     1   --> A_2  D_2  S_2  
     e(  5 -  5) =     18.99027  eV     1   --> B_1  D_3  S_3  
     e(  6 -  6) =     19.00239  eV     1   -->   ?

 **************************************************************************

 **************************************************************************

                    xk=(   0.03333,   0.00000,   0.03333  )

     Band symmetry, C_2v (mm2)  point group:

     e(  1 -  1) =     -8.10917  eV     1   --> A_1  D_1  S_1  
     e(  2 -  2) =     13.23557  eV     1   --> B_2  D_4  S_4  
     e(  3 -  3) =     13.27254  eV     1   --> A_1  D_1  S_1  
     e(  4 -  4) =     13.34787  eV     1   --> A_2  D_2  S_2  
     e(  5 -  5) =     19.00594  eV     1   --> B_1  D_3  S_3  
     e(  6 -  6) =     19.05333  eV     1   -->   ?

 **************************************************************************

 **************************************************************************

                    xk=(   0.05000,   0.00000,   0.05000  )

     Band symmetry, C_2v (mm2)  point group:

     e(  1 -  1) =     -8.08353  eV     1   --> A_1  D_1  S_1  
     e(  2 -  2) =     13.08655  eV     1   --> B_2  D_4  S_4  
     e(  3 -  3) =     13.16578  eV     1   --> A_1  D_1  S_1  
     e(  4 -  4) =     13.33201  eV     1   --> A_2  D_2  S_2  
     e(  5 -  5) =     19.03205  eV     1   --> B_1  D_3  S_3  
     e(  6 -  6) =     19.13583  eV     1   --> A_1  D_1  S_1  

 **************************************************************************

 **************************************************************************

                    xk=(   0.06667,   0.00000,   0.06667  )

     Band symmetry, C_2v (mm2)  point group:

     e(  1 -  1) =     -8.04764  eV     1   --> A_1  D_1  S_1  
     e(  2 -  2) =     12.88946  eV     1   --> B_2  D_4  S_4  
     e(  3 -  3) =     13.02174  eV     1   --> A_1  D_1  S_1  
     e(  4 -  4) =     13.30969  eV     1   --> A_2  D_2  S_2  
     e(  5 -  5) =     19.06858  eV     1   --> B_1  D_3  S_3  
     e(  6 -  6) =     19.24656  eV     1   --> A_1  D_1  S_1  

 **************************************************************************

 **************************************************************************

                    xk=(   0.08333,   0.00000,   0.08333  )

     Band symmetry, C_2v (mm2)  point group:

     e(  1 -  1) =     -8.00152  eV     1   --> A_1  D_1  S_1  
     e(  2 -  2) =     12.65270  eV     1   --> B_2  D_4  S_4  
     e(  3 -  3) =     12.84479  eV     1   --> A_1  D_1  S_1  
     e(  4 -  4) =     13.28080  eV     1   --> A_2  D_2  S_2  
     e(  5 -  5) =     19.11548  eV     1   --> B_1  D_3  S_3  
     e(  6 -  6) =     19.38166  eV     1   --> A_1  D_1  S_1  

 **************************************************************************

 **************************************************************************

                    xk=(   0.10000,   0.00000,   0.10000  )

     Band symmetry, C_2v (mm2)  point group:

     e(  1 -  1) =     -7.94518  eV     1   --> A_1  D_1  S_1  
     e(  2 -  2) =     12.38425  eV     1   --> B_2  D_4  S_4  
     e(  3 -  3) =     12.63948  eV     1   --> A_1  D_1  S_1  
     e(  4 -  4) =     13.24520  eV     1   --> A_2  D_2  S_2  
     e(  5 -  5) =     19.17276  eV     1   --> B_1  D_3  S_3  
     e(  6 -  6) =     19.53758  eV     1   --> A_1  D_1  S_1  

 **************************************************************************

 **************************************************************************

                    xk=(   0.11667,   0.00000,   0.11667  )

     Band symmetry, C_2v (mm2)  point group:

     e(  1 -  1) =     -7.87863  eV     1   --> A_1  D_1  S_1  
     e(  2 -  2) =     12.09110  eV     1   --> B_2  D_4  S_4  
     e(  3 -  3) =     12.41021  eV     1   --> A_1  D_1  S_1  
     e(  4 -  4) =     13.20275  eV     1   --> A_2  D_2  S_2  
     e(  5 -  5) =     19.24036  eV     1   --> B_1  D_3  S_3  
     e(  6 -  6) =     19.71069  eV     1   --> A_1  D_1  S_1  

 **************************************************************************

 **************************************************************************

                    xk=(   0.13333,   0.00000,   0.13333  )

     Band symmetry, C_2v (mm2)  point group:

     e(  1 -  1) =     -7.80190  eV     1   --> A_1  D_1  S_1  
     e(  2 -  2) =     11.77909  eV     1   --> B_2  D_4  S_4  
     e(  3 -  3) =     12.16098  eV     1   --> A_1  D_1  S_1  
     e(  4 -  4) =     13.15329  eV     1   --> A_2  D_2  S_2  
     e(  5 -  5) =     19.31824  eV     1   --> B_1  D_3  S_3  
     e(  6 -  6) =     19.89807  eV     1   --> A_1  D_1  S_1  

 **************************************************************************

 **************************************************************************

                    xk=(   0.15000,   0.00000,   0.15000  )

     Band symmetry, C_2v (mm2)  point group:

     e(  1 -  1) =     -7.71501  eV     1   --> A_1  D_1  S_1  
     e(  2 -  2) =     11.45305  eV     1   --> B_2  D_4  S_4  
     e(  3 -  3) =     11.89537  eV     1   --> A_1  D_1  S_1  
     e(  4 -  4) =     13.09666  eV     1   --> A_2  D_2  S_2  
     e(  5 -  5) =     19.40635  eV     1   --> B_1  D_3  S_3  
     e(  6 -  6) =     20.09727  eV     1   --> A_1  D_1  S_1  

 **************************************************************************

 **************************************************************************

                    xk=(   0.16667,   0.00000,   0.16667  )

     Band symmetry, C_2v (mm2)  point group:

     e(  1 -  1) =     -7.61799  eV     1   --> A_1  D_1  S_1  
     e(  2 -  2) =     11.11677  eV     1   --> B_2  D_4  S_4  
     e(  3 -  3) =     11.61649  eV     1   --> A_1  D_1  S_1  
     e(  4 -  4) =     13.03271  eV     1   --> A_2  D_2  S_2  
     e(  5 -  5) =     19.50463  eV     1   --> B_1  D_3  S_3  
     e(  6 -  6) =     20.30629  eV     1   --> A_1  D_1  S_1  

 **************************************************************************

 **************************************************************************

                    xk=(   0.18333,   0.00000,   0.18333  )

     Band symmetry, C_2v (mm2)  point group:

     e(  1 -  1) =     -7.51087  eV     1   --> A_1  D_1  S_1  
     e(  2 -  2) =     10.77331  eV     1   --> B_2  D_4  S_4  
     e(  3 -  3) =     11.32701  eV     1   --> A_1  D_1  S_1  
     e(  4 -  4) =     12.96127  eV     1   --> A_2  D_2  S_2  
     e(  5 -  5) =     19.61296  eV     1   --> B_1  D_3  S_3  
     e(  6 -  6) =     20.52363  eV     1   --> A_1  D_1  S_1  

 **************************************************************************

 **************************************************************************

                    xk=(   0.20000,   0.00000,   0.20000  )

     Band symmetry, C_2v (mm2)  point group:

     e(  1 -  1) =     -7.39370  eV     1   --> A_1  D_1  S_1  
     e(  2 -  2) =     10.42521  eV     1   --> B_2  D_4  S_4  
     e(  3 -  3) =     11.02925  eV     1   --> A_1  D_1  S_1  
     e(  4 -  4) =     12.88222  eV     1   --> A_2  D_2  S_2  
     e(  5 -  5) =     19.73127  eV     1   --> B_1  D_3  S_3  
     e(  6 -  6) =     20.74820  eV     1   --> A_1  D_1  S_1  

 **************************************************************************

 **************************************************************************

                    xk=(   0.21667,   0.00000,   0.21667  )

     Band symmetry, C_2v (mm2)  point group:

     e(  1 -  1) =     -7.26651  eV     1   --> A_1  D_1  S_1  
     e(  2 -  2) =     10.07455  eV     1   --> B_2  D_4  S_4  
     e(  3 -  3) =     10.72528  eV     1   --> A_1  D_1  S_1  
     e(  4 -  4) =     12.79555  eV     1   --> A_2  D_2  S_2  
     e(  5 -  5) =     19.85956  eV     1   --> B_1  D_3  S_3  
     e(  6 -  6) =     20.97941  eV     1   --> A_1  D_1  S_1  

 **************************************************************************

 **************************************************************************

                    xk=(   0.23333,   0.00000,   0.23333  )

     Band symmetry, C_2v (mm2)  point group:

     e(  1 -  1) =     -7.12936  eV     1   --> A_1  D_1  S_1  
     e(  2 -  2) =      9.72298  eV     1   --> B_2  D_4  S_4  
     e(  3 -  3) =     10.41682  eV     1   --> A_1  D_1  S_1  
     e(  4 -  4) =     12.70114  eV     1   --> A_2  D_2  S_2  
     e(  5 -  5) =     19.99747  eV     1   --> B_1  D_3  S_3  
     e(  6 -  6) =     21.21657  eV     1   --> A_1  D_1  S_1  

 **************************************************************************

 **************************************************************************

                    xk=(   0.25000,   0.00000,   0.25000  )

     Band symmetry, C_2v (mm2)  point group:

     e(  1 -  1) =     -6.98230  eV     1   --> A_1  D_1  S_1  
     e(  2 -  2) =      9.37188  eV     1   --> B_2  D_4  S_4  
     e(  3 -  3) =     10.10541  eV     1   --> A_1  D_1  S_1  
     e(  4 -  4) =     12.59904  eV     1   --> A_2  D_2  S_2  
     e(  5 -  5) =     20.14521  eV     1   --> B_1  D_3  S_3  
     e(  6 -  6) =     21.45938  eV     1   --> A_1  D_1  S_1  

 **************************************************************************

 **************************************************************************

                    xk=(   0.26667,   0.00000,   0.26667  )

     Band symmetry, C_2v (mm2)  point group:

     e(  1 -  1) =     -6.82539  eV     1   --> A_1  D_1  S_1  
     e(  2 -  2) =      9.02236  eV     1   --> B_2  D_4  S_4  
     e(  3 -  3) =      9.79238  eV     1   --> A_1  D_1  S_1  
     e(  4 -  4) =     12.48931  eV     1   --> A_2  D_2  S_2  
     e(  5 -  5) =     20.30253  eV     1   --> B_1  D_3  S_3  
     e(  6 -  6) =     21.70594  eV     1   -->   ?

 **************************************************************************

 **************************************************************************

                    xk=(   0.28333,   0.00000,   0.28333  )

     Band symmetry, C_2v (mm2)  point group:

     e(  1 -  1) =     -6.65871  eV     1   --> A_1  D_1  S_1  
     e(  2 -  2) =      8.67541  eV     1   --> B_2  D_4  S_4  
     e(  3 -  3) =      9.47893  eV     1   --> A_1  D_1  S_1  
     e(  4 -  4) =     12.37215  eV     1   --> A_2  D_2  S_2  
     e(  5 -  5) =     20.46934  eV     1   --> B_1  D_3  S_3  
     e(  6 -  6) =     21.81990  eV     1   --> B_2  D_4  S_4  

 **************************************************************************

 **************************************************************************

                    xk=(   0.30000,   0.00000,   0.30000  )

     Band symmetry, C_2v (mm2)  point group:

     e(  1 -  1) =     -6.48235  eV     1   --> A_1  D_1  S_1  
     e(  2 -  2) =      8.33180  eV     1   --> B_2  D_4  S_4  
     e(  3 -  3) =      9.16610  eV     1   --> A_1  D_1  S_1  
     e(  4 -  4) =     12.24761  eV     1   --> A_2  D_2  S_2  
     e(  5 -  5) =     20.64538  eV     1   --> B_1  D_3  S_3  
     e(  6 -  6) =     21.91278  eV     1   --> B_2  D_4  S_4  

 **************************************************************************

 **************************************************************************

                    xk=(   0.31667,   0.00000,   0.31667  )

     Band symmetry, C_2v (mm2)  point group:

     e(  1 -  1) =     -6.29639  eV     1   --> A_1  D_1  S_1  
     e(  2 -  2) =      7.99224  eV     1   --> B_2  D_4  S_4  
     e(  3 -  3) =      8.85484  eV     1   --> A_1  D_1  S_1  
     e(  4 -  4) =     12.11606  eV     1   --> A_2  D_2  S_2  
     e(  5 -  5) =     20.83053  eV     1   --> B_1  D_3  S_3  
     e(  6 -  6) =     21.98351  eV     1   --> B_2  D_4  S_4  

 **************************************************************************

 **************************************************************************

                    xk=(   0.33333,   0.00000,   0.33333  )

     Band symmetry, C_2v (mm2)  point group:

     e(  1 -  1) =     -6.10094  eV     1   --> A_1  D_1  S_1  
     e(  2 -  2) =      7.65734  eV     1   --> B_2  D_4  S_4  
     e(  3 -  3) =      8.54605  eV     1   --> A_1  D_1  S_1  
     e(  4 -  4) =     11.97784  eV     1   --> A_2  D_2  S_2  
     e(  5 -  5) =     21.02464  eV     1   --> B_1  D_3  S_3  
     e(  6 -  6) =     22.03128  eV     1   --> B_2  D_4  S_4  

 **************************************************************************

 **************************************************************************

                    xk=(   0.35000,   0.00000,   0.35000  )

     Band symmetry, C_2v (mm2)  point group:

     e(  1 -  1) =     -5.89612  eV     1   --> A_1  D_1  S_1  
     e(  2 -  2) =      7.32759  eV     1   --> B_2  D_4  S_4  
     e(  3 -  3) =      8.24049  eV     1   --> A_1  D_1  S_1  
     e(  4 -  4) =     11.83331  eV     1   --> A_2  D_2  S_2  
     e(  5 -  5) =     21.22751  eV     1   --> B_1  D_3  S_3  
     e(  6 -  6) =     22.05564  eV     1   --> B_2  D_4  S_4  

 **************************************************************************

 **************************************************************************

                    xk=(   0.36667,   0.00000,   0.36667  )

     Band symmetry, C_2v (mm2)  point group:

     e(  1 -  1) =     -5.68208  eV     1   --> A_1  D_1  S_1  
     e(  2 -  2) =      7.00343  eV     1   --> B_2  D_4  S_4  
     e(  3 -  3) =      7.93887  eV     1   --> A_1  D_1  S_1  
     e(  4 -  4) =     11.68294  eV     1   --> A_2  D_2  S_2  
     e(  5 -  5) =     21.43891  eV     1   --> B_1  D_3  S_3  
     e(  6 -  6) =     22.05648  eV     1   --> B_2  D_4  S_4  

 **************************************************************************

 **************************************************************************

                    xk=(   0.38333,   0.00000,   0.38333  )

     Band symmetry, C_2v (mm2)  point group:

     e(  1 -  1) =     -5.45896  eV     1   --> A_1  D_1  S_1  
     e(  2 -  2) =      6.68527  eV     1   --> B_2  D_4  S_4  
     e(  3 -  3) =      7.64191  eV     1   --> A_1  D_1  S_1  
     e(  4 -  4) =     11.52719  eV     1   --> A_2  D_2  S_2  
     e(  5 -  5) =     21.65864  eV     1   --> B_1  D_3  S_3  
     e(  6 -  6) =     22.03415  eV     1   --> B_2  D_4  S_4  

 **************************************************************************

 **************************************************************************

                    xk=(   0.40000,   0.00000,   0.40000  )

     Band symmetry, C_2v (mm2)  point group:

     e(  1 -  1) =     -5.22696  eV     1   --> A_1  D_1  S_1  
     e(  2 -  2) =      6.37341  eV     1   --> B_2  D_4  S_4  
     e(  3 -  3) =      7.35021  eV     1   --> A_1  D_1  S_1  
     e(  4 -  4) =     11.36669  eV     1   --> A_2  D_2  S_2  
     e(  5 -  5) =     21.88642  eV     1   --> B_1  D_3  S_3  
     e(  6 -  6) =     21.98940  eV     1   --> B_2  D_4  S_4  

 **************************************************************************

 **************************************************************************

                    xk=(   0.41667,   0.00000,   0.41667  )

     Band symmetry, C_2v (mm2)  point group:

     e(  1 -  1) =     -4.98629  eV     1   --> A_1  D_1  S_1  
     e(  2 -  2) =      6.06817  eV     1   --> B_2  D_4  S_4  
     e(  3 -  3) =      7.06435  eV     1   --> A_1  D_1  S_1  
     e(  4 -  4) =     11.20194  eV     1   --> A_2  D_2  S_2  
     e(  5 -  5) =     21.92349  eV     1   --> B_2  D_4  S_4  
     e(  6 -  6) =     22.12185  eV     1   --> B_1  D_3  S_3  

 **************************************************************************

 **************************************************************************

                    xk=(   0.43333,   0.00000,   0.43333  )

     Band symmetry, C_2v (mm2)  point group:

     e(  1 -  1) =     -4.73719  eV     1   --> A_1  D_1  S_1  
     e(  2 -  2) =      5.76983  eV     1   --> B_2  D_4  S_4  
     e(  3 -  3) =      6.78498  eV     1   --> A_1  D_1  S_1  
     e(  4 -  4) =     11.03368  eV     1   --> A_2  D_2  S_2  
     e(  5 -  5) =     21.83829  eV     1   --> B_2  D_4  S_4  
     e(  6 -  6) =     22.36491  eV     1   --> B_1  D_3  S_3  

 **************************************************************************

 **************************************************************************

                    xk=(   0.45000,   0.00000,   0.45000  )

     Band symmetry, C_2v (mm2)  point group:

     e(  1 -  1) =     -4.47994  eV     1   --> A_1  D_1  S_1  
     e(  2 -  2) =      5.47859  eV     1   --> B_2  D_4  S_4  
     e(  3 -  3) =      6.51264  eV     1   --> A_1  D_1  S_1  
     e(  4 -  4) =     10.86248  eV     1   --> A_2  D_2  S_2  
     e(  5 -  5) =     21.73573  eV     1   --> B_2  D_4  S_4  
     e(  6 -  6) =     22.61514  eV     1   --> B_1  D_3  S_3  

 **************************************************************************

 **************************************************************************

                    xk=(   0.46667,   0.00000,   0.46667  )

     Band symmetry, C_2v (mm2)  point group:

     e(  1 -  1) =     -4.21488  eV     1   --> A_1  D_1  S_1  
     e(  2 -  2) =      5.19467  eV     1   --> B_2  D_4  S_4  
     e(  3 -  3) =      6.24792  eV     1   --> A_1  D_1  S_1  
     e(  4 -  4) =     10.68901  eV     1   --> A_2  D_2  S_2  
     e(  5 -  5) =     21.61812  eV     1   --> B_2  D_4  S_4  
     e(  6 -  6) =     22.87220  eV     1   --> B_1  D_3  S_3  

 **************************************************************************

 **************************************************************************

                    xk=(   0.48333,   0.00000,   0.48333  )

     Band symmetry, C_2v (mm2)  point group:

     e(  1 -  1) =     -3.94243  eV     1   --> A_1  D_1  S_1  
     e(  2 -  2) =      4.91825  eV     1   --> B_2  D_4  S_4  
     e(  3 -  3) =      5.99140  eV     1   --> A_1  D_1  S_1  
     e(  4 -  4) =     10.51392  eV     1   --> A_2  D_2  S_2  
     e(  5 -  5) =     21.48775  eV     1   --> B_2  D_4  S_4  
     e(  6 -  6) =     23.13568  eV     1   --> B_1  D_3  S_3  

 **************************************************************************

 **************************************************************************

                    xk=(   0.50000,   0.00000,   0.50000  )

     Band symmetry, C_2v (mm2)  point group:

     e(  1 -  1) =     -3.66304  eV     1   --> A_1  D_1  S_1  
     e(  2 -  2) =      4.64953  eV     1   --> B_2  D_4  S_4  
     e(  3 -  3) =      5.74373  eV     1   --> A_1  D_1  S_1  
     e(  4 -  4) =     10.33791  eV     1   --> A_2  D_2  S_2  
     e(  5 -  5) =     21.34704  eV     1   --> B_2  D_4  S_4  
     e(  6 -  6) =     23.40519  eV     1   --> B_1  D_3  S_3  

 **************************************************************************

 **************************************************************************

                    xk=(   0.49583,   0.01250,   0.50833  )

     point group C_1 (1)    
     there are  1 classes
     the character table:

       E    
A      1.00

     the symmetry operations in each class and the name of the first element:

     E        1
                                                                 

     Band symmetry, C_1 (1)     point group:

     e(  1 -  1) =     -3.62571  eV     1   --> A              
     e(  2 -  2) =      4.58749  eV     1   --> A              
     e(  3 -  3) =      5.74362  eV     1   --> A              
     e(  4 -  4) =     10.31280  eV     1   --> A              
     e(  5 -  5) =     21.33397  eV     1   --> A              
     e(  6 -  6) =     23.42996  eV     1   --> A              

 **************************************************************************

 **************************************************************************

                    xk=(   0.49167,   0.02500,   0.51667  )

     Band symmetry, C_1 (1)     point group:

     e(  1 -  1) =     -3.58443  eV     1   --> A              
     e(  2 -  2) =      4.47574  eV     1   --> A              
     e(  3 -  3) =      5.79598  eV     1   --> A              
     e(  4 -  4) =     10.28164  eV     1   --> A              
     e(  5 -  5) =     21.33105  eV     1   --> A              
     e(  6 -  6) =     23.43625  eV     1   --> A              

 **************************************************************************

 **************************************************************************

                    xk=(   0.48750,   0.03750,   0.52500  )

     Band symmetry, C_1 (1)     point group:

     e(  1 -  1) =     -3.53922  eV     1   --> A              
     e(  2 -  2) =      4.33051  eV     1   --> A              
     e(  3 -  3) =      5.88465  eV     1   --> A              
     e(  4 -  4) =     10.24459  eV     1   --> A              
     e(  5 -  5) =     21.33822  eV     1   --> A              
     e(  6 -  6) =     23.42418  eV     1   --> A              

 **************************************************************************

 **************************************************************************

                    xk=(   0.48333,   0.05000,   0.53333  )

     Band symmetry, C_1 (1)     point group:

     e(  1 -  1) =     -3.49013  eV     1   --> A              
     e(  2 -  2) =      4.16543  eV     1   --> A              
     e(  3 -  3) =      5.99598  eV     1   --> A              
     e(  4 -  4) =     10.20187  eV     1   --> A              
     e(  5 -  5) =     21.35529  eV     1   --> A              
     e(  6 -  6) =     23.39396  eV     1   --> A              

 **************************************************************************

 **************************************************************************

                    xk=(   0.47917,   0.06250,   0.54167  )

     Band symmetry, C_1 (1)     point group:

     e(  1 -  1) =     -3.43721  eV     1   --> A              
     e(  2 -  2) =      3.98925  eV     1   --> A              
     e(  3 -  3) =      6.12117  eV     1   --> A              
     e(  4 -  4) =     10.15373  eV     1   --> A              
     e(  5 -  5) =     21.38190  eV     1   --> A              
     e(  6 -  6) =     23.34610  eV     1   --> A              

 **************************************************************************

 **************************************************************************

                    xk=(   0.47500,   0.07500,   0.55000  )

     Band symmetry, C_1 (1)     point group:

     e(  1 -  1) =     -3.38052  eV     1   --> A              
     e(  2 -  2) =      3.80719  eV     1   --> A              
     e(  3 -  3) =      6.25489  eV     1   --> A              
     e(  4 -  4) =     10.10050  eV     1   --> A              
     e(  5 -  5) =     21.41752  eV     1   --> A              
     e(  6 -  6) =     23.28148  eV     1   --> A              

 **************************************************************************

 **************************************************************************

                    xk=(   0.47083,   0.08750,   0.55833  )

     Band symmetry, C_1 (1)     point group:

     e(  1 -  1) =     -3.32013  eV     1   --> A              
     e(  2 -  2) =      3.62237  eV     1   --> A              
     e(  3 -  3) =      6.39384  eV     1   --> A              
     e(  4 -  4) =     10.04257  eV     1   --> A              
     e(  5 -  5) =     21.46147  eV     1   --> A              
     e(  6 -  6) =     23.20165  eV     1   --> A              

 **************************************************************************

 **************************************************************************

                    xk=(   0.46667,   0.10000,   0.56667  )

     Band symmetry, C_1 (1)     point group:

     e(  1 -  1) =     -3.25611  eV     1   --> A              
     e(  2 -  2) =      3.43681  eV     1   --> A              
     e(  3 -  3) =      6.53582  eV     1   --> A              
     e(  4 -  4) =      9.98038  eV     1   --> A              
     e(  5 -  5) =     21.51266  eV     1   --> A              
     e(  6 -  6) =     23.10879  eV     1   --> A              

 **************************************************************************

 **************************************************************************

                    xk=(   0.46250,   0.11250,   0.57500  )

     Band symmetry, C_1 (1)     point group:

     e(  1 -  1) =     -3.18856  eV     1   --> A              
     e(  2 -  2) =      3.25183  eV     1   --> A              
     e(  3 -  3) =      6.67917  eV     1   --> A              
     e(  4 -  4) =      9.91445  eV     1   --> A              
     e(  5 -  5) =     21.56956  eV     1   --> A              
     e(  6 -  6) =     23.00591  eV     1   --> A              

 **************************************************************************

 **************************************************************************

                    xk=(   0.45833,   0.12500,   0.58333  )

     Band symmetry, C_1 (1)     point group:

     e(  1 -  1) =     -3.11759  eV     1   --> A              
     e(  2 -  2) =      3.06842  eV     1   --> A              
     e(  3 -  3) =      6.82255  eV     1   --> A              
     e(  4 -  4) =      9.84535  eV     1   --> A              
     e(  5 -  5) =     21.62972  eV     1   --> A              
     e(  6 -  6) =     22.89718  eV     1   --> A              

 **************************************************************************

 **************************************************************************

                    xk=(   0.45417,   0.13750,   0.59167  )

     Band symmetry, C_1 (1)     point group:

     e(  1 -  1) =     -3.04331  eV     1   --> A              
     e(  2 -  2) =      2.88729  eV     1   --> A              
     e(  3 -  3) =      6.96474  eV     1   --> A              
     e(  4 -  4) =      9.77377  eV     1   --> A              
     e(  5 -  5) =     21.68911  eV     1   --> A              
     e(  6 -  6) =     22.78845  eV     1   --> A              

 **************************************************************************

 **************************************************************************

                    xk=(   0.45000,   0.15000,   0.60000  )

     Band symmetry, C_1 (1)     point group:

     e(  1 -  1) =     -2.96589  eV     1   --> A              
     e(  2 -  2) =      2.70904  eV     1   --> A              
     e(  3 -  3) =      7.10455  eV     1   --> A              
     e(  4 -  4) =      9.70049  eV     1   --> A              
     e(  5 -  5) =     21.74091  eV     1   --> A              
     e(  6 -  6) =     22.68840  eV     1   --> A              

 **************************************************************************

 **************************************************************************

                    xk=(   0.44583,   0.16250,   0.60833  )

     Band symmetry, C_1 (1)     point group:

     e(  1 -  1) =     -2.88550  eV     1   --> A              
     e(  2 -  2) =      2.53418  eV     1   --> A              
     e(  3 -  3) =      7.24069  eV     1   --> A              
     e(  4 -  4) =      9.62646  eV     1   --> A              
     e(  5 -  5) =     21.77401  eV     1   --> A              
     e(  6 -  6) =     22.60990  eV     1   --> A              

 **************************************************************************

 **************************************************************************

                    xk=(   0.44167,   0.17500,   0.61667  )

     Band symmetry, C_1 (1)     point group:

     e(  1 -  1) =     -2.80234  eV     1   --> A              
     e(  2 -  2) =      2.36321  eV     1   --> A              
     e(  3 -  3) =      7.37171  eV     1   --> A              
     e(  4 -  4) =      9.55278  eV     1   --> A              
     e(  5 -  5) =     21.77414  eV     1   --> A              
     e(  6 -  6) =     22.56901  eV     1   --> A              

 **************************************************************************

 **************************************************************************

                    xk=(   0.43750,   0.18750,   0.62500  )

     Band symmetry, C_1 (1)     point group:

     e(  1 -  1) =     -2.71667  eV     1   --> A              
     e(  2 -  2) =      2.19657  eV     1   --> A              
     e(  3 -  3) =      7.49594  eV     1   --> A              
     e(  4 -  4) =      9.48087  eV     1   --> A              
     e(  5 -  5) =     21.73230  eV     1   --> A              
     e(  6 -  6) =     22.57621  eV     1   --> A              

 **************************************************************************

 **************************************************************************

                    xk=(   0.43333,   0.20000,   0.63333  )

     Band symmetry, C_1 (1)     point group:

     e(  1 -  1) =     -2.62878  eV     1   --> A              
     e(  2 -  2) =      2.03472  eV     1   --> A              
     e(  3 -  3) =      7.61134  eV     1   --> A              
     e(  4 -  4) =      9.41236  eV     1   --> A              
     e(  5 -  5) =     21.65327  eV     1   --> A              
     e(  6 -  6) =     22.62805  eV     1   --> A              

 **************************************************************************

 **************************************************************************

                    xk=(   0.42917,   0.21250,   0.64167  )

     Band symmetry, C_1 (1)     point group:

     e(  1 -  1) =     -2.53904  eV     1   --> A              
     e(  2 -  2) =      1.87817  eV     1   --> A              
     e(  3 -  3) =      7.71547  eV     1   --> A              
     e(  4 -  4) =      9.34940  eV     1   --> A              
     e(  5 -  5) =     21.55027  eV     1   --> A              
     e(  6 -  6) =     22.71252  eV     1   --> A              

 **************************************************************************

 **************************************************************************

                    xk=(   0.42500,   0.22500,   0.65000  )

     Band symmetry, C_1 (1)     point group:

     e(  1 -  1) =     -2.44788  eV     1   --> A              
     e(  2 -  2) =      1.72745  eV     1   --> A              
     e(  3 -  3) =      7.80541  eV     1   --> A              
     e(  4 -  4) =      9.29453  eV     1   --> A              
     e(  5 -  5) =     21.43529  eV     1   --> A              
     e(  6 -  6) =     22.81871  eV     1   --> A              

 **************************************************************************

 **************************************************************************

                    xk=(   0.42083,   0.23750,   0.65833  )

     Band symmetry, C_1 (1)     point group:

     e(  1 -  1) =     -2.35583  eV     1   --> A              
     e(  2 -  2) =      1.58320  eV     1   --> A              
     e(  3 -  3) =      7.87791  eV     1   --> A              
     e(  4 -  4) =      9.25062  eV     1   --> A              
     e(  5 -  5) =     21.31639  eV     1   --> A              
     e(  6 -  6) =     22.93943  eV     1   --> A              

 **************************************************************************

 **************************************************************************

                    xk=(   0.41667,   0.25000,   0.66667  )

     Band symmetry, C_1 (1)     point group:

     e(  1 -  1) =     -2.26354  eV     1   --> A              
     e(  2 -  2) =      1.44612  eV     1   --> A              
     e(  3 -  3) =      7.92976  eV     1   --> A              
     e(  4 -  4) =      9.22044  eV     1   --> A              
     e(  5 -  5) =     21.19883  eV     1   --> A              
     e(  6 -  6) =     23.07012  eV     1   --> A              

 **************************************************************************

 **************************************************************************

                    xk=(   0.41250,   0.26250,   0.67500  )

     Band symmetry, C_1 (1)     point group:

     e(  1 -  1) =     -2.17181  eV     1   --> A              
     e(  2 -  2) =      1.31708  eV     1   --> A              
     e(  3 -  3) =      7.95864  eV     1   --> A              
     e(  4 -  4) =      9.20591  eV     1   --> A              
     e(  5 -  5) =     21.08617  eV     1   --> A              
     e(  6 -  6) =     23.20778  eV     1   --> A              

 **************************************************************************

 **************************************************************************

                    xk=(   0.40833,   0.27500,   0.68333  )

     Band symmetry, C_1 (1)     point group:

     e(  1 -  1) =     -2.08159  eV     1   --> A              
     e(  2 -  2) =      1.19706  eV     1   --> A              
     e(  3 -  3) =      7.96388  eV     1   --> A              
     e(  4 -  4) =      9.20720  eV     1   --> A              
     e(  5 -  5) =     20.98096  eV     1   --> A              
     e(  6 -  6) =     23.35009  eV     1   --> A              

 **************************************************************************

 **************************************************************************

                    xk=(   0.40417,   0.28750,   0.69167  )

     Band symmetry, C_1 (1)     point group:

     e(  1 -  1) =     -1.99406  eV     1   --> A              
     e(  2 -  2) =      1.08728  eV     1   --> A              
     e(  3 -  3) =      7.94696  eV     1   --> A              
     e(  4 -  4) =      9.22239  eV     1   --> A              
     e(  5 -  5) =     20.88522  eV     1   --> A              
     e(  6 -  6) =     23.49499  eV     1   --> A              

 **************************************************************************

 **************************************************************************

                    xk=(   0.40000,   0.30000,   0.70000  )

     Band symmetry, C_1 (1)     point group:

     e(  1 -  1) =     -1.91060  eV     1   --> A              
     e(  2 -  2) =      0.98913  eV     1   --> A              
     e(  3 -  3) =      7.91095  eV     1   --> A              
     e(  4 -  4) =      9.24794  eV     1   --> A              
     e(  5 -  5) =     20.80051  eV     1   --> A              
     e(  6 -  6) =     23.64032  eV     1   --> A              

 **************************************************************************

 **************************************************************************

                    xk=(   0.39583,   0.31250,   0.70833  )

     Band symmetry, C_1 (1)     point group:

     e(  1 -  1) =     -1.83283  eV     1   --> A              
     e(  2 -  2) =      0.90427  eV     1   --> A              
     e(  3 -  3) =      7.85967  eV     1   --> A              
     e(  4 -  4) =      9.27966  eV     1   --> A              
     e(  5 -  5) =     20.72824  eV     1   --> A              
     e(  6 -  6) =     23.78347  eV     1   --> A              

 **************************************************************************

 **************************************************************************

                    xk=(   0.39167,   0.32500,   0.71667  )

     Band symmetry, C_1 (1)     point group:

     e(  1 -  1) =     -1.76260  eV     1   --> A              
     e(  2 -  2) =      0.83449  eV     1   --> A              
     e(  3 -  3) =      7.79676  eV     1   --> A              
     e(  4 -  4) =      9.31350  eV     1   --> A              
     e(  5 -  5) =     20.66947  eV     1   --> A              
     e(  6 -  6) =     23.92071  eV     1   --> A              

 **************************************************************************

 **************************************************************************

                    xk=(   0.38750,   0.33750,   0.72500  )

     Band symmetry, C_1 (1)     point group:

     e(  1 -  1) =     -1.70182  eV     1   --> A              
     e(  2 -  2) =      0.78174  eV     1   --> A              
     e(  3 -  3) =      7.72529  eV     1   --> A              
     e(  4 -  4) =      9.34608  eV     1   --> A              
     e(  5 -  5) =     20.62513  eV     1   --> A              
     e(  6 -  6) =     24.04643  eV     1   --> A              

 **************************************************************************

 **************************************************************************

                    xk=(   0.38333,   0.35000,   0.73333  )

     Band symmetry, C_1 (1)     point group:

     e(  1 -  1) =     -1.65240  eV     1   --> A              
     e(  2 -  2) =      0.74786  eV     1   --> A              
     e(  3 -  3) =      7.64768  eV     1   --> A              
     e(  4 -  4) =      9.37470  eV     1   --> A              
     e(  5 -  5) =     20.59596  eV     1   --> A              
     e(  6 -  6) =     24.15179  eV     1   --> A              

 **************************************************************************

 **************************************************************************

                    xk=(   0.37917,   0.36250,   0.74167  )

     Band symmetry, C_1 (1)     point group:

     e(  1 -  1) =     -1.61591  eV     1   --> A              
     e(  2 -  2) =      0.73441  eV     1   --> A              
     e(  3 -  3) =      7.56582  eV     1   --> A              
     e(  4 -  4) =      9.39739  eV     1   --> A              
     e(  5 -  5) =     20.58253  eV     1   --> A              
     e(  6 -  6) =     24.22485  eV     1   --> A              

 **************************************************************************

 **************************************************************************

                    xk=(   0.37500,   0.37500,   0.75000  )

     point group C_s (m)    
     there are  2 classes
     the character table:

       E     s    
A'     1.00  1.00
A''    1.00 -1.00

     the symmetry operations in each class and the name of the first element:

     E        1
                                                                 
     s        2
                                                                 

     Band symmetry, C_s (m)     point group:

     e(  1 -  1) =     -1.59338  eV     1   --> A'             
     e(  2 -  2) =      0.74236  eV     1   --> A'             
     e(  3 -  3) =      7.48110  eV     1   --> A'             
     e(  4 -  4) =      9.41267  eV     1   --> A''            
     e(  5 -  5) =     20.58518  eV     1   --> A'             
     e(  6 -  6) =     24.25398  eV     1   --> A''            

 **************************************************************************

 **************************************************************************

                    xk=(   0.36250,   0.36250,   0.72500  )

     Band symmetry, C_s (m)     point group:

     e(  1 -  1) =     -1.71181  eV     1   --> A'             
     e(  2 -  2) =      0.77164  eV     1   --> A'             
     e(  3 -  3) =      7.74105  eV     1   --> A'             
     e(  4 -  4) =      9.38618  eV     1   --> A''            
     e(  5 -  5) =     20.55698  eV     1   --> A'             
     e(  6 -  6) =     24.23107  eV     1   --> A''            

 **************************************************************************

 **************************************************************************

                    xk=(   0.35000,   0.35000,   0.70000  )

     Band symmetry, C_s (m)     point group:

     e(  1 -  1) =     -1.95070  eV     1   --> A'             
     e(  2 -  2) =      0.94848  eV     1   --> A'             
     e(  3 -  3) =      8.00558  eV     1   --> A'             
     e(  4 -  4) =      9.37425  eV     1   --> A''            
     e(  5 -  5) =     20.53625  eV     1   --> A'             
     e(  6 -  6) =     24.19577  eV     1   --> A''            

 **************************************************************************

 **************************************************************************

                    xk=(   0.33750,   0.33750,   0.67500  )

     Band symmetry, C_s (m)     point group:

     e(  1 -  1) =     -2.26300  eV     1   --> A'             
     e(  2 -  2) =      1.22615  eV     1   --> A'             
     e(  3 -  3) =      8.27350  eV     1   --> A'             
     e(  4 -  4) =      9.37723  eV     1   --> A''            
     e(  5 -  5) =     20.52162  eV     1   --> A'             
     e(  6 -  6) =     24.14915  eV     1   --> A''            

 **************************************************************************

 **************************************************************************

                    xk=(   0.32500,   0.32500,   0.65000  )

     Band symmetry, C_s (m)     point group:

     e(  1 -  1) =     -2.61197  eV     1   --> A'             
     e(  2 -  2) =      1.56815  eV     1   --> A'             
     e(  3 -  3) =      8.54379  eV     1   --> A'             
     e(  4 -  4) =      9.39537  eV     1   --> A''            
     e(  5 -  5) =     20.51139  eV     1   --> A'             
     e(  6 -  6) =     24.09174  eV     1   --> A''            

 **************************************************************************

 **************************************************************************

                    xk=(   0.31250,   0.31250,   0.62500  )

     Band symmetry, C_s (m)     point group:

     e(  1 -  1) =     -2.97612  eV     1   --> A'             
     e(  2 -  2) =      1.95303  eV     1   --> A'             
     e(  3 -  3) =      8.81535  eV     1   --> A'             
     e(  4 -  4) =      9.42884  eV     1   --> A''            
     e(  5 -  5) =     20.50351  eV     1   --> A'             
     e(  6 -  6) =     24.02353  eV     1   --> A''            

 **************************************************************************

 **************************************************************************

                    xk=(   0.30000,   0.30000,   0.60000  )

     Band symmetry, C_s (m)     point group:

     e(  1 -  1) =     -3.34351  eV     1   --> A'             
     e(  2 -  2) =      2.36883  eV     1   --> A'             
     e(  3 -  3) =      9.08712  eV     1   --> A'             
     e(  4 -  4) =      9.47774  eV     1   --> A''            
     e(  5 -  5) =     20.49563  eV     1   --> A'             
     e(  6 -  6) =     23.94419  eV     1   --> A''            

 **************************************************************************

 **************************************************************************

                    xk=(   0.28750,   0.28750,   0.57500  )

     Band symmetry, C_s (m)     point group:

     e(  1 -  1) =     -3.70736  eV     1   --> A'             
     e(  2 -  2) =      2.80868  eV     1   --> A'             
     e(  3 -  3) =      9.35802  eV     1   --> A'             
     e(  4 -  4) =      9.54206  eV     1   --> A''            
     e(  5 -  5) =     20.48532  eV     1   --> A'             
     e(  6 -  6) =     23.85292  eV     1   --> A''            

 **************************************************************************

 **************************************************************************

                    xk=(   0.27500,   0.27500,   0.55000  )

     Band symmetry, C_s (m)     point group:

     e(  1 -  1) =     -4.06358  eV     1   --> A'             
     e(  2 -  2) =      3.26827  eV     1   --> A'             
     e(  3 -  3) =      9.62179  eV     1   --> A''            
     e(  4 -  4) =      9.62702  eV     1   --> A'             
     e(  5 -  5) =     20.47013  eV     1   --> A'             
     e(  6 -  6) =     23.74878  eV     1   --> A''            

 **************************************************************************

 **************************************************************************

                    xk=(   0.26250,   0.26250,   0.52500  )

     Band symmetry, C_s (m)     point group:

     e(  1 -  1) =     -4.40960  eV     1   --> A'             
     e(  2 -  2) =      3.74472  eV     1   --> A'             
     e(  3 -  3) =      9.71685  eV     1   --> A''            
     e(  4 -  4) =      9.89317  eV     1   --> A'             
     e(  5 -  5) =     20.44768  eV     1   --> A'             
     e(  6 -  6) =     23.63140  eV     1   -->   ?

 **************************************************************************

 **************************************************************************

                    xk=(   0.25000,   0.25000,   0.50000  )

     Band symmetry, C_s (m)     point group:

     e(  1 -  1) =     -4.74370  eV     1   --> A'             
     e(  2 -  2) =      4.23586  eV     1   --> A'             
     e(  3 -  3) =      9.82707  eV     1   --> A''            
     e(  4 -  4) =     10.15556  eV     1   --> A'             
     e(  5 -  5) =     20.41613  eV     1   --> A'             
     e(  6 -  6) =     23.47527  eV     1   -->   ?

 **************************************************************************

 **************************************************************************

                    xk=(   0.23750,   0.23750,   0.47500  )

     Band symmetry, C_s (m)     point group:

     e(  1 -  1) =     -5.06467  eV     1   --> A'             
     e(  2 -  2) =      4.73998  eV     1   --> A'             
     e(  3 -  3) =      9.95218  eV     1   --> A''            
     e(  4 -  4) =     10.41328  eV     1   --> A'             
     e(  5 -  5) =     20.37401  eV     1   --> A'             
     e(  6 -  6) =     23.28367  eV     1   --> A'             

 **************************************************************************

 **************************************************************************

                    xk=(   0.22500,   0.22500,   0.45000  )

     Band symmetry, C_s (m)     point group:

     e(  1 -  1) =     -5.37163  eV     1   --> A'             
     e(  2 -  2) =      5.25554  eV     1   --> A'             
     e(  3 -  3) =     10.09187  eV     1   --> A''            
     e(  4 -  4) =     10.66552  eV     1   --> A'             
     e(  5 -  5) =     20.32077  eV     1   --> A'             
     e(  6 -  6) =     23.08623  eV     1   --> A'             

 **************************************************************************

 **************************************************************************

                    xk=(   0.21250,   0.21250,   0.42500  )

     Band symmetry, C_s (m)     point group:

     e(  1 -  1) =     -5.66394  eV     1   --> A'             
     e(  2 -  2) =      5.78111  eV     1   --> A'             
     e(  3 -  3) =     10.24572  eV     1   --> A''            
     e(  4 -  4) =     10.91149  eV     1   --> A'             
     e(  5 -  5) =     20.25634  eV     1   --> A'             
     e(  6 -  6) =     22.88238  eV     1   --> A'             

 **************************************************************************

 **************************************************************************

                    xk=(   0.20000,   0.20000,   0.40000  )

     Band symmetry, C_s (m)     point group:

     e(  1 -  1) =     -5.94108  eV     1   --> A'             
     e(  2 -  2) =      6.31525  eV     1   --> A'             
     e(  3 -  3) =     10.41324  eV     1   --> A''            
     e(  4 -  4) =     11.15049  eV     1   --> A'             
     e(  5 -  5) =     20.18156  eV     1   --> A'             
     e(  6 -  6) =     22.67166  eV     1   --> A'             

 **************************************************************************

 **************************************************************************

                    xk=(   0.18750,   0.18750,   0.37500  )

     Band symmetry, C_s (m)     point group:

     e(  1 -  1) =     -6.20267  eV     1   --> A'             
     e(  2 -  2) =      6.85642  eV     1   --> A'             
     e(  3 -  3) =     10.59366  eV     1   --> A''            
     e(  4 -  4) =     11.38175  eV     1   --> A'             
     e(  5 -  5) =     20.09755  eV     1   --> A'             
     e(  6 -  6) =     22.45330  eV     1   --> A'             

 **************************************************************************

 **************************************************************************

                    xk=(   0.17500,   0.17500,   0.35000  )

     Band symmetry, C_s (m)     point group:

     e(  1 -  1) =     -6.44837  eV     1   --> A'             
     e(  2 -  2) =      7.40298  eV     1   --> A'             
     e(  3 -  3) =     10.78626  eV     1   --> A''            
     e(  4 -  4) =     11.60459  eV     1   --> A'             
     e(  5 -  5) =     20.00601  eV     1   --> A'             
     e(  6 -  6) =     22.22679  eV     1   -->   ?

 **************************************************************************

 **************************************************************************

                    xk=(   0.16250,   0.16250,   0.32500  )

     Band symmetry, C_s (m)     point group:

     e(  1 -  1) =     -6.67794  eV     1   --> A'             
     e(  2 -  2) =      7.95307  eV     1   --> A'             
     e(  3 -  3) =     10.99001  eV     1   --> A''            
     e(  4 -  4) =     11.81833  eV     1   --> A'             
     e(  5 -  5) =     19.90882  eV     1   --> A'             
     e(  6 -  6) =     21.99143  eV     1   -->   ?

 **************************************************************************

 **************************************************************************

                    xk=(   0.15000,   0.15000,   0.30000  )

     Band symmetry, C_s (m)     point group:

     e(  1 -  1) =     -6.89114  eV     1   --> A'             
     e(  2 -  2) =      8.50458  eV     1   --> A'             
     e(  3 -  3) =     11.20364  eV     1   --> A''            
     e(  4 -  4) =     12.02223  eV     1   --> A'             
     e(  5 -  5) =     19.80794  eV     1   --> A'             
     e(  6 -  6) =     21.74668  eV     1   -->   ?

 **************************************************************************

 **************************************************************************

                    xk=(   0.13750,   0.13750,   0.27500  )

     Band symmetry, C_s (m)     point group:

     e(  1 -  1) =     -7.08780  eV     1   --> A'             
     e(  2 -  2) =      9.05505  eV     1   --> A'             
     e(  3 -  3) =     11.42564  eV     1   --> A''            
     e(  4 -  4) =     12.21555  eV     1   --> A'             
     e(  5 -  5) =     19.70542  eV     1   --> A'             
     e(  6 -  6) =     21.47779  eV     1   -->   ?

 **************************************************************************

 **************************************************************************

                    xk=(   0.12500,   0.12500,   0.25000  )

     Band symmetry, C_s (m)     point group:

     e(  1 -  1) =     -7.26778  eV     1   --> A'             
     e(  2 -  2) =      9.60156  eV     1   --> A'             
     e(  3 -  3) =     11.65407  eV     1   --> A''            
     e(  4 -  4) =     12.39746  eV     1   --> A'             
     e(  5 -  5) =     19.60326  eV     1   --> A'             
     e(  6 -  6) =     21.17664  eV     1   -->   ?

 **************************************************************************

 **************************************************************************

                    xk=(   0.11250,   0.11250,   0.22500  )

     Band symmetry, C_s (m)     point group:

     e(  1 -  1) =     -7.43093  eV     1   --> A'             
     e(  2 -  2) =     10.14044  eV     1   --> A'             
     e(  3 -  3) =     11.88648  eV     1   --> A''            
     e(  4 -  4) =     12.56699  eV     1   --> A'             
     e(  5 -  5) =     19.50332  eV     1   --> A'             
     e(  6 -  6) =     20.87041  eV     1   --> A''            

 **************************************************************************

 **************************************************************************

                    xk=(   0.10000,   0.10000,   0.20000  )

     Band symmetry, C_s (m)     point group:

     e(  1 -  1) =     -7.57717  eV     1   --> A'             
     e(  2 -  2) =     10.66741  eV     1   --> A'             
     e(  3 -  3) =     12.11989  eV     1   --> A''            
     e(  4 -  4) =     12.72317  eV     1   --> A'             
     e(  5 -  5) =     19.40761  eV     1   --> A'             
     e(  6 -  6) =     20.56406  eV     1   --> A''            

 **************************************************************************

 **************************************************************************

                    xk=(   0.08750,   0.08750,   0.17500  )

     Band symmetry, C_s (m)     point group:

     e(  1 -  1) =     -7.70639  eV     1   --> A'             
     e(  2 -  2) =     11.17692  eV     1   --> A'             
     e(  3 -  3) =     12.35050  eV     1   --> A''            
     e(  4 -  4) =     12.86500  eV     1   --> A'             
     e(  5 -  5) =     19.31784  eV     1   --> A'             
     e(  6 -  6) =     20.26341  eV     1   --> A''            

 **************************************************************************

 **************************************************************************

                    xk=(   0.07500,   0.07500,   0.15000  )

     Band symmetry, C_s (m)     point group:

     e(  1 -  1) =     -7.81852  eV     1   --> A'             
     e(  2 -  2) =     11.66184  eV     1   --> A'             
     e(  3 -  3) =     12.57355  eV     1   --> A''            
     e(  4 -  4) =     12.99125  eV     1   --> A'             
     e(  5 -  5) =     19.23569  eV     1   --> A'             
     e(  6 -  6) =     19.97517  eV     1   --> A''            

 **************************************************************************

 **************************************************************************

                    xk=(   0.06250,   0.06250,   0.12500  )

     Band symmetry, C_s (m)     point group:

     e(  1 -  1) =     -7.91350  eV     1   --> A'             
     e(  2 -  2) =     12.11311  eV     1   --> A'             
     e(  3 -  3) =     12.78319  eV     1   --> A''            
     e(  4 -  4) =     13.10082  eV     1   --> A'             
     e(  5 -  5) =     19.16290  eV     1   --> A'             
     e(  6 -  6) =     19.70708  eV     1   --> A''            

 **************************************************************************

 **************************************************************************

                    xk=(   0.05000,   0.05000,   0.10000  )

     Band symmetry, C_s (m)     point group:

     e(  1 -  1) =     -7.99128  eV     1   --> A'             
     e(  2 -  2) =     12.51890  eV     1   --> A'             
     e(  3 -  3) =     12.97233  eV     1   --> A''            
     e(  4 -  4) =     13.19250  eV     1   --> A'             
     e(  5 -  5) =     19.10098  eV     1   --> A'             
     e(  6 -  6) =     19.46778  eV     1   --> A''            

 **************************************************************************

 **************************************************************************

                    xk=(   0.03750,   0.03750,   0.07500  )

     Band symmetry, C_s (m)     point group:

     e(  1 -  1) =     -8.05181  eV     1   --> A'             
     e(  2 -  2) =     12.86425  eV     1   --> A'             
     e(  3 -  3) =     13.13281  eV     1   --> A''            
     e(  4 -  4) =     13.26517  eV     1   --> A'             
     e(  5 -  5) =     19.05119  eV     1   --> A'             
     e(  6 -  6) =     19.26677  eV     1   --> A''            

 **************************************************************************

 **************************************************************************

                    xk=(   0.02500,   0.02500,   0.05000  )

     Band symmetry, C_s (m)     point group:

     e(  1 -  1) =     -8.09507  eV     1   --> A'             
     e(  2 -  2) =     13.13139  eV     1   --> A'             
     e(  3 -  3) =     13.25600  eV     1   --> A''            
     e(  4 -  4) =     13.31787  eV     1   --> A'             
     e(  5 -  5) =     19.01476  eV     1   --> A'             
     e(  6 -  6) =     19.11384  eV     1   --> A''            

 **************************************************************************

 **************************************************************************

                    xk=(   0.01250,   0.01250,   0.02500  )

     Band symmetry, C_s (m)     point group:

     e(  1 -  1) =     -8.12103  eV     1   --> A'             
     e(  2 -  2) =     13.30178  eV     1   --> A'             
     e(  3 -  3) =     13.33384  eV     1   --> A''            
     e(  4 -  4) =     13.34981  eV     1   --> A'             
     e(  5 -  5) =     18.99253  eV     1   --> A'             
     e(  6 -  6) =     19.01783  eV     1   -->   ?

 **************************************************************************

 **************************************************************************

                    xk=(   0.00000,   0.00000,   0.00000  )

     point group O_h (m-3m) 
     there are 10 classes
     the character table:

       E     8C3   3C2   6C4   6C2'  i     8S6   3s_h  6S4   6s_d 
A_1g   1.00  1.00  1.00  1.00  1.00  1.00  1.00  1.00  1.00  1.00
A_2g   1.00  1.00  1.00 -1.00 -1.00  1.00  1.00  1.00 -1.00 -1.00
E_g    2.00 -1.00  2.00  0.00  0.00  2.00 -1.00  2.00  0.00  0.00
T_1g   3.00  0.00 -1.00  1.00 -1.00  3.00  0.00 -1.00  1.00 -1.00
T_2g   3.00  0.00 -1.00 -1.00  1.00  3.00  0.00 -1.00 -1.00  1.00
A_1u   1.00  1.00  1.00  1.00  1.00 -1.00 -1.00 -1.00 -1.00 -1.00
A_2u   1.00  1.00  1.00 -1.00 -1.00 -1.00 -1.00 -1.00  1.00  1.00
E_u    2.00 -1.00  2.00  0.00  0.00 -2.00  1.00 -2.00  0.00  0.00
T_1u   3.00  0.00 -1.00  1.00 -1.00 -3.00  0.00  1.00 -1.00  1.00
T_2u   3.00  0.00 -1.00 -1.00  1.00 -3.00  0.00  1.00  1.00 -1.00

     the symmetry operations in each class and the name of the first element:

     E        1
                                                                 
     8C3     17   19   20   18   24   21   22   23
                                                                 
     3C2      2    4    3
                                                                 
     6C4      7    8   15   16   12   11
                                                                 
     6C2'     5    6   14   13   10    9
                                                                 
     i       25
                                                                 
     8S6     41   43   44   42   48   45   46   47
                                                                 
     3s_h    26   28   27
                                                                 
     6S4     31   32   39   40   36   35
                                                                 
     6s_d    29   30   38   37   34   33
                                                                 

     Band symmetry, O_h (m-3m)  point group:

     e(  1 -  1) =     -8.12969  eV     1   --> A_1g G_1   G_1+
     e(  2 -  4) =     13.36051  eV     3   --> T_2g G_25' G_5+
     e(  5 -  6) =     18.98504  eV     2   -->   ?

 **************************************************************************

     BANDS        :      0.39s CPU      0.97s WALL


   This run was terminated on:  22:54:55  19Nov2025            

=------------------------------------------------------------------------------=
   JOB DONE.
=------------------------------------------------------------------------------=
