
     Program PWSCF v.7.4 starts on 19Nov2025 at 22:52:51 

     This program is part of the open-source Quantum ESPRESSO suite
     for quantum simulation of materials; please cite
         "P. Giannozzi et al., J. Phys.:Condens. Matter 21 395502 (2009);
         "P. Giannozzi et al., J. Phys.:Condens. Matter 29 465901 (2017);
         "P. Giannozzi et al., J. Chem. Phys. 152 154105 (2020);
          URL http://www.quantum-espresso.org", 
     in publications or presentations arising from this work. More details at
     http://www.quantum-espresso.org/quote

     Parallel version (MPI), running on     1 processors

     MPI processes distributed on     1 nodes
     456 MiB available memory on the printing compute node when the environment starts

     Waiting for input...
     Reading input from standard input

     Current dimensions of program PWSCF are:
     Max number of different atomic species (ntypx) = 10
     Max number of k-points (npk) =  40000
     Max angular momentum in pseudopotentials (lmaxx) =  4

     Atomic positions and unit cell read from directory:
     output/diamond.save/


     Subspace diagonalization in iterative solution of the eigenvalue problem:
     a serial algorithm will be used


     G-vector sticks info
     --------------------
     sticks:   dense  smooth     PW     G-vecs:    dense   smooth      PW
     Sum         511     511    151                 7727     7727    1243

     Using Slab Decomposition



     bravais-lattice index     =            2
     lattice parameter (alat)  =       6.7400  a.u.
     unit-cell volume          =      76.5455 (a.u.)^3
     number of atoms/cell      =            2
     number of atomic types    =            1
     number of electrons       =         8.00
     number of Kohn-Sham states=            6
     kinetic-energy cutoff     =      82.0000  Ry
     charge density cutoff     =     328.0000  Ry
     Exchange-correlation= PBE
                           (   1   4   3   4   0   0   0)

     celldm(1)=   6.740000  celldm(2)=   0.000000  celldm(3)=   0.000000
     celldm(4)=   0.000000  celldm(5)=   0.000000  celldm(6)=   0.000000

     crystal axes: (cart. coord. in units of alat)
               a(1) = (  -0.500000   0.000000   0.500000 )  
               a(2) = (   0.000000   0.500000   0.500000 )  
               a(3) = (  -0.500000   0.500000   0.000000 )  

     reciprocal axes: (cart. coord. in units 2 pi/alat)
               b(1) = ( -1.000000 -1.000000  1.000000 )  
               b(2) = (  1.000000  1.000000  1.000000 )  
               b(3) = ( -1.000000  1.000000 -1.000000 )  


     PseudoPot. # 1 for C  read from file:
     ./pseudo/C.upf
     MD5 check sum: 34a24e64c0a39f27c6c36b90a16ac686
     Pseudo is Norm-conserving + core correction, Zval =  4.0
     Generated using ONCVPSP code by D. R. Hamann
     Using radial grid of 1248 points,  4 beta functions with: 
                l(1) =   0
                l(2) =   0
                l(3) =   1
                l(4) =   1

     atomic species   valence    mass     pseudopotential
     C                 4.00    12.01070     C ( 1.00)

     48 Sym. Ops., with inversion, found (24 have fractional translation)



   Cartesian axes

     site n.     atom                  positions (alat units)
         1        C      tau(   1) = (   0.0000000   0.0000000   0.0000000  )
         2        C      tau(   2) = (   0.2500000   0.2500000   0.2500000  )

     number of k points=    91
                       cart. coord. in units 2pi/alat
        k(    1) = (   0.0000000   0.0000000   0.0000000), wk =   0.0219780
        k(    2) = (   0.0166667   0.0000000   0.0166667), wk =   0.0219780
        k(    3) = (   0.0333333   0.0000000   0.0333333), wk =   0.0219780
        k(    4) = (   0.0500000   0.0000000   0.0500000), wk =   0.0219780
        k(    5) = (   0.0666667   0.0000000   0.0666667), wk =   0.0219780
        k(    6) = (   0.0833333   0.0000000   0.0833333), wk =   0.0219780
        k(    7) = (   0.1000000   0.0000000   0.1000000), wk =   0.0219780
        k(    8) = (   0.1166667   0.0000000   0.1166667), wk =   0.0219780
        k(    9) = (   0.1333333   0.0000000   0.1333333), wk =   0.0219780
        k(   10) = (   0.1500000   0.0000000   0.1500000), wk =   0.0219780
        k(   11) = (   0.1666667   0.0000000   0.1666667), wk =   0.0219780
        k(   12) = (   0.1833333   0.0000000   0.1833333), wk =   0.0219780
        k(   13) = (   0.2000000   0.0000000   0.2000000), wk =   0.0219780
        k(   14) = (   0.2166667   0.0000000   0.2166667), wk =   0.0219780
        k(   15) = (   0.2333333   0.0000000   0.2333333), wk =   0.0219780
        k(   16) = (   0.2500000   0.0000000   0.2500000), wk =   0.0219780
        k(   17) = (   0.2666667   0.0000000   0.2666667), wk =   0.0219780
        k(   18) = (   0.2833333   0.0000000   0.2833333), wk =   0.0219780
        k(   19) = (   0.3000000   0.0000000   0.3000000), wk =   0.0219780
        k(   20) = (   0.3166667   0.0000000   0.3166667), wk =   0.0219780
        k(   21) = (   0.3333333   0.0000000   0.3333333), wk =   0.0219780
        k(   22) = (   0.3500000   0.0000000   0.3500000), wk =   0.0219780
        k(   23) = (   0.3666667   0.0000000   0.3666667), wk =   0.0219780
        k(   24) = (   0.3833333   0.0000000   0.3833333), wk =   0.0219780
        k(   25) = (   0.4000000   0.0000000   0.4000000), wk =   0.0219780
        k(   26) = (   0.4166667   0.0000000   0.4166667), wk =   0.0219780
        k(   27) = (   0.4333333   0.0000000   0.4333333), wk =   0.0219780
        k(   28) = (   0.4500000   0.0000000   0.4500000), wk =   0.0219780
        k(   29) = (   0.4666667   0.0000000   0.4666667), wk =   0.0219780
        k(   30) = (   0.4833333   0.0000000   0.4833333), wk =   0.0219780
        k(   31) = (   0.5000000   0.0000000   0.5000000), wk =   0.0219780
        k(   32) = (   0.4958333   0.0125000   0.5083333), wk =   0.0219780
        k(   33) = (   0.4916667   0.0250000   0.5166667), wk =   0.0219780
        k(   34) = (   0.4875000   0.0375000   0.5250000), wk =   0.0219780
        k(   35) = (   0.4833333   0.0500000   0.5333333), wk =   0.0219780
        k(   36) = (   0.4791667   0.0625000   0.5416667), wk =   0.0219780
        k(   37) = (   0.4750000   0.0750000   0.5500000), wk =   0.0219780
        k(   38) = (   0.4708333   0.0875000   0.5583333), wk =   0.0219780
        k(   39) = (   0.4666667   0.1000000   0.5666667), wk =   0.0219780
        k(   40) = (   0.4625000   0.1125000   0.5750000), wk =   0.0219780
        k(   41) = (   0.4583333   0.1250000   0.5833333), wk =   0.0219780
        k(   42) = (   0.4541667   0.1375000   0.5916667), wk =   0.0219780
        k(   43) = (   0.4500000   0.1500000   0.6000000), wk =   0.0219780
        k(   44) = (   0.4458333   0.1625000   0.6083333), wk =   0.0219780
        k(   45) = (   0.4416667   0.1750000   0.6166667), wk =   0.0219780
        k(   46) = (   0.4375000   0.1875000   0.6250000), wk =   0.0219780
        k(   47) = (   0.4333333   0.2000000   0.6333333), wk =   0.0219780
        k(   48) = (   0.4291667   0.2125000   0.6416667), wk =   0.0219780
        k(   49) = (   0.4250000   0.2250000   0.6500000), wk =   0.0219780
        k(   50) = (   0.4208333   0.2375000   0.6583333), wk =   0.0219780
        k(   51) = (   0.4166667   0.2500000   0.6666667), wk =   0.0219780
        k(   52) = (   0.4125000   0.2625000   0.6750000), wk =   0.0219780
        k(   53) = (   0.4083333   0.2750000   0.6833333), wk =   0.0219780
        k(   54) = (   0.4041667   0.2875000   0.6916667), wk =   0.0219780
        k(   55) = (   0.4000000   0.3000000   0.7000000), wk =   0.0219780
        k(   56) = (   0.3958333   0.3125000   0.7083333), wk =   0.0219780
        k(   57) = (   0.3916667   0.3250000   0.7166667), wk =   0.0219780
        k(   58) = (   0.3875000   0.3375000   0.7250000), wk =   0.0219780
        k(   59) = (   0.3833333   0.3500000   0.7333333), wk =   0.0219780
        k(   60) = (   0.3791667   0.3625000   0.7416667), wk =   0.0219780
        k(   61) = (   0.3750000   0.3750000   0.7500000), wk =   0.0219780
        k(   62) = (   0.3625000   0.3625000   0.7250000), wk =   0.0219780
        k(   63) = (   0.3500000   0.3500000   0.7000000), wk =   0.0219780
        k(   64) = (   0.3375000   0.3375000   0.6750000), wk =   0.0219780
        k(   65) = (   0.3250000   0.3250000   0.6500000), wk =   0.0219780
        k(   66) = (   0.3125000   0.3125000   0.6250000), wk =   0.0219780
        k(   67) = (   0.3000000   0.3000000   0.6000000), wk =   0.0219780
        k(   68) = (   0.2875000   0.2875000   0.5750000), wk =   0.0219780
        k(   69) = (   0.2750000   0.2750000   0.5500000), wk =   0.0219780
        k(   70) = (   0.2625000   0.2625000   0.5250000), wk =   0.0219780
        k(   71) = (   0.2500000   0.2500000   0.5000000), wk =   0.0219780
        k(   72) = (   0.2375000   0.2375000   0.4750000), wk =   0.0219780
        k(   73) = (   0.2250000   0.2250000   0.4500000), wk =   0.0219780
        k(   74) = (   0.2125000   0.2125000   0.4250000), wk =   0.0219780
        k(   75) = (   0.2000000   0.2000000   0.4000000), wk =   0.0219780
        k(   76) = (   0.1875000   0.1875000   0.3750000), wk =   0.0219780
        k(   77) = (   0.1750000   0.1750000   0.3500000), wk =   0.0219780
        k(   78) = (   0.1625000   0.1625000   0.3250000), wk =   0.0219780
        k(   79) = (   0.1500000   0.1500000   0.3000000), wk =   0.0219780
        k(   80) = (   0.1375000   0.1375000   0.2750000), wk =   0.0219780
        k(   81) = (   0.1250000   0.1250000   0.2500000), wk =   0.0219780
        k(   82) = (   0.1125000   0.1125000   0.2250000), wk =   0.0219780
        k(   83) = (   0.1000000   0.1000000   0.2000000), wk =   0.0219780
        k(   84) = (   0.0875000   0.0875000   0.1750000), wk =   0.0219780
        k(   85) = (   0.0750000   0.0750000   0.1500000), wk =   0.0219780
        k(   86) = (   0.0625000   0.0625000   0.1250000), wk =   0.0219780
        k(   87) = (   0.0500000   0.0500000   0.1000000), wk =   0.0219780
        k(   88) = (   0.0375000   0.0375000   0.0750000), wk =   0.0219780
        k(   89) = (   0.0250000   0.0250000   0.0500000), wk =   0.0219780
        k(   90) = (   0.0125000   0.0125000   0.0250000), wk =   0.0219780
        k(   91) = (   0.0000000   0.0000000   0.0000000), wk =   0.0219780

     Dense  grid:     7727 G-vectors     FFT dimensions: (  32,  32,  32)

     Estimated max dynamical RAM per process >       4.31 MB

     The potential is recalculated from file :
     output/diamond.save/charge-density

     Starting wfcs are    8 randomized atomic wfcs

     Band Structure Calculation
     Davidson diagonalization with overlap
     c_bands:  2 eigenvalues not converged
     c_bands:  1 eigenvalues not converged
     c_bands:  1 eigenvalues not converged

     ethr =  1.25E-08,  avg # of iterations = 42.8

     total cpu time spent up to now is        4.1 secs

     End of band structure calculation

          k = 0.0000 0.0000 0.0000 (   941 PWs)   bands (ev):

    -8.1297  13.3605  13.3605  13.3605  18.9850  18.9850

          k = 0.0167 0.0000 0.0167 (   941 PWs)   bands (ev):

    -8.1246  13.3288  13.3383  13.3574  18.9903  19.0024

          k = 0.0333 0.0000 0.0333 (   941 PWs)   bands (ev):

    -8.1092  13.2356  13.2725  13.3479  19.0059  19.0533

          k = 0.0500 0.0000 0.0500 (   941 PWs)   bands (ev):

    -8.0835  13.0865  13.1658  13.3320  19.0320  19.1358

          k = 0.0667 0.0000 0.0667 (   941 PWs)   bands (ev):

    -8.0476  12.8895  13.0217  13.3097  19.0686  19.2466

          k = 0.0833 0.0000 0.0833 (   945 PWs)   bands (ev):

    -8.0015  12.6527  12.8448  13.2808  19.1155  19.3817

          k = 0.1000 0.0000 0.1000 (   945 PWs)   bands (ev):

    -7.9452  12.3843  12.6395  13.2452  19.1728  19.5376

          k = 0.1167 0.0000 0.1167 (   947 PWs)   bands (ev):

    -7.8786  12.0911  12.4102  13.2028  19.2404  19.7107

          k = 0.1333 0.0000 0.1333 (   947 PWs)   bands (ev):

    -7.8019  11.7791  12.1610  13.1533  19.3182  19.8981

          k = 0.1500 0.0000 0.1500 (   943 PWs)   bands (ev):

    -7.7150  11.4531  11.8954  13.0967  19.4063  20.0973

          k = 0.1667 0.0000 0.1667 (   939 PWs)   bands (ev):

    -7.6180  11.1168  11.6165  13.0327  19.5046  20.3063

          k = 0.1833 0.0000 0.1833 (   941 PWs)   bands (ev):

    -7.5109  10.7733  11.3270  12.9613  19.6130  20.5236

          k = 0.2000 0.0000 0.2000 (   949 PWs)   bands (ev):

    -7.3937  10.4252  11.0293  12.8822  19.7313  20.7482

          k = 0.2167 0.0000 0.2167 (   947 PWs)   bands (ev):

    -7.2665  10.0745  10.7253  12.7956  19.8596  20.9794

          k = 0.2333 0.0000 0.2333 (   951 PWs)   bands (ev):

    -7.1294   9.7230  10.4168  12.7011  19.9975  21.2166

          k = 0.2500 0.0000 0.2500 (   953 PWs)   bands (ev):

    -6.9823   9.3719  10.1054  12.5990  20.1452  21.4594

          k = 0.2667 0.0000 0.2667 (   951 PWs)   bands (ev):

    -6.8254   9.0224   9.7924  12.4893  20.3025  21.7059

          k = 0.2833 0.0000 0.2833 (   947 PWs)   bands (ev):

    -6.6587   8.6754   9.4789  12.3721  20.4693  21.8199

          k = 0.3000 0.0000 0.3000 (   949 PWs)   bands (ev):

    -6.4823   8.3318   9.1661  12.2476  20.6454  21.9128

          k = 0.3167 0.0000 0.3167 (   949 PWs)   bands (ev):

    -6.2964   7.9922   8.8548  12.1161  20.8305  21.9835

          k = 0.3333 0.0000 0.3333 (   949 PWs)   bands (ev):

    -6.1009   7.6573   8.5460  11.9778  21.0246  22.0313

          k = 0.3500 0.0000 0.3500 (   949 PWs)   bands (ev):

    -5.8961   7.3276   8.2405  11.8333  21.2275  22.0556

          k = 0.3667 0.0000 0.3667 (   953 PWs)   bands (ev):

    -5.6821   7.0034   7.9389  11.6829  21.4389  22.0565

          k = 0.3833 0.0000 0.3833 (   953 PWs)   bands (ev):

    -5.4590   6.6853   7.6419  11.5272  21.6586  22.0341

          k = 0.4000 0.0000 0.4000 (   953 PWs)   bands (ev):

    -5.2270   6.3734   7.3502  11.3667  21.8864  21.9894

          k = 0.4167 0.0000 0.4167 (   965 PWs)   bands (ev):

    -4.9863   6.0682   7.0644  11.2019  21.9235  22.1219

          k = 0.4333 0.0000 0.4333 (   961 PWs)   bands (ev):

    -4.7372   5.7698   6.7850  11.0337  21.8383  22.3649

          k = 0.4500 0.0000 0.4500 (   961 PWs)   bands (ev):

    -4.4799   5.4786   6.5126  10.8625  21.7357  22.6151

          k = 0.4667 0.0000 0.4667 (   957 PWs)   bands (ev):

    -4.2149   5.1947   6.2479  10.6890  21.6181  22.8722

          k = 0.4833 0.0000 0.4833 (   963 PWs)   bands (ev):

    -3.9424   4.9182   5.9914  10.5139  21.4877  23.1357

          k = 0.5000 0.0000 0.5000 (   959 PWs)   bands (ev):

    -3.6630   4.6495   5.7437  10.3379  21.3470  23.4052

          k = 0.4958 0.0125 0.5083 (   963 PWs)   bands (ev):

    -3.6257   4.5875   5.7436  10.3128  21.3340  23.4300

          k = 0.4917 0.0250 0.5167 (   966 PWs)   bands (ev):

    -3.5844   4.4757   5.7960  10.2816  21.3310  23.4362

          k = 0.4875 0.0375 0.5250 (   965 PWs)   bands (ev):

    -3.5392   4.3305   5.8847  10.2446  21.3382  23.4242

          k = 0.4833 0.0500 0.5333 (   963 PWs)   bands (ev):

    -3.4901   4.1654   5.9960  10.2019  21.3553  23.3940

          k = 0.4792 0.0625 0.5417 (   959 PWs)   bands (ev):

    -3.4372   3.9893   6.1212  10.1537  21.3819  23.3461

          k = 0.4750 0.0750 0.5500 (   960 PWs)   bands (ev):

    -3.3805   3.8072   6.2549  10.1005  21.4175  23.2815

          k = 0.4708 0.0875 0.5583 (   959 PWs)   bands (ev):

    -3.3201   3.6224   6.3938  10.0426  21.4615  23.2017

          k = 0.4667 0.1000 0.5667 (   960 PWs)   bands (ev):

    -3.2561   3.4368   6.5358   9.9804  21.5127  23.1088

          k = 0.4625 0.1125 0.5750 (   959 PWs)   bands (ev):

    -3.1886   3.2518   6.6792   9.9144  21.5696  23.0059

          k = 0.4583 0.1250 0.5833 (   959 PWs)   bands (ev):

    -3.1176   3.0684   6.8226   9.8454  21.6297  22.8972

          k = 0.4542 0.1375 0.5917 (   959 PWs)   bands (ev):

    -3.0433   2.8873   6.9647   9.7738  21.6891  22.7885

          k = 0.4500 0.1500 0.6000 (   961 PWs)   bands (ev):

    -2.9659   2.7090   7.1045   9.7005  21.7409  22.6884

          k = 0.4458 0.1625 0.6083 (   964 PWs)   bands (ev):

    -2.8855   2.5342   7.2407   9.6265  21.7740  22.6099

          k = 0.4417 0.1750 0.6167 (   963 PWs)   bands (ev):

    -2.8023   2.3632   7.3717   9.5528  21.7741  22.5690

          k = 0.4375 0.1875 0.6250 (   958 PWs)   bands (ev):

    -2.7167   2.1966   7.4959   9.4809  21.7323  22.5762

          k = 0.4333 0.2000 0.6333 (   958 PWs)   bands (ev):

    -2.6288   2.0347   7.6113   9.4124  21.6533  22.6280

          k = 0.4292 0.2125 0.6417 (   958 PWs)   bands (ev):

    -2.5390   1.8782   7.7155   9.3494  21.5503  22.7125

          k = 0.4250 0.2250 0.6500 (   958 PWs)   bands (ev):

    -2.4479   1.7275   7.8054   9.2945  21.4353  22.8187

          k = 0.4208 0.2375 0.6583 (   958 PWs)   bands (ev):

    -2.3558   1.5832   7.8779   9.2506  21.3164  22.9394

          k = 0.4167 0.2500 0.6667 (   960 PWs)   bands (ev):

    -2.2635   1.4461   7.9298   9.2204  21.1988  23.0701

          k = 0.4125 0.2625 0.6750 (   959 PWs)   bands (ev):

    -2.1718   1.3171   7.9586   9.2059  21.0862  23.2078

          k = 0.4083 0.2750 0.6833 (   959 PWs)   bands (ev):

    -2.0816   1.1971   7.9639   9.2072  20.9810  23.3501

          k = 0.4042 0.2875 0.6917 (   959 PWs)   bands (ev):

    -1.9941   1.0873   7.9470   9.2224  20.8852  23.4950

          k = 0.4000 0.3000 0.7000 (   962 PWs)   bands (ev):

    -1.9106   0.9891   7.9109   9.2479  20.8005  23.6403

          k = 0.3958 0.3125 0.7083 (   961 PWs)   bands (ev):

    -1.8328   0.9043   7.8597   9.2797  20.7282  23.7835

          k = 0.3917 0.3250 0.7167 (   961 PWs)   bands (ev):

    -1.7626   0.8345   7.7968   9.3135  20.6695  23.9207

          k = 0.3875 0.3375 0.7250 (   960 PWs)   bands (ev):

    -1.7018   0.7817   7.7253   9.3461  20.6251  24.0464

          k = 0.3833 0.3500 0.7333 (   963 PWs)   bands (ev):

    -1.6524   0.7479   7.6477   9.3747  20.5960  24.1518

          k = 0.3792 0.3625 0.7417 (   961 PWs)   bands (ev):

    -1.6159   0.7344   7.5658   9.3974  20.5825  24.2249

          k = 0.3750 0.3750 0.7500 (   965 PWs)   bands (ev):

    -1.5934   0.7424   7.4811   9.4127  20.5852  24.2540

          k = 0.3625 0.3625 0.7250 (   959 PWs)   bands (ev):

    -1.7118   0.7716   7.7411   9.3862  20.5570  24.2311

          k = 0.3500 0.3500 0.7000 (   959 PWs)   bands (ev):

    -1.9507   0.9485   8.0056   9.3743  20.5362  24.1958

          k = 0.3375 0.3375 0.6750 (   965 PWs)   bands (ev):

    -2.2630   1.2262   8.2735   9.3772  20.5216  24.1492

          k = 0.3250 0.3250 0.6500 (   965 PWs)   bands (ev):

    -2.6120   1.5681   8.5438   9.3954  20.5114  24.0917

          k = 0.3125 0.3125 0.6250 (   965 PWs)   bands (ev):

    -2.9761   1.9530   8.8153   9.4288  20.5035  24.0235

          k = 0.3000 0.3000 0.6000 (   967 PWs)   bands (ev):

    -3.3435   2.3688   9.0871   9.4777  20.4956  23.9442

          k = 0.2875 0.2875 0.5750 (   965 PWs)   bands (ev):

    -3.7074   2.8087   9.3580   9.5421  20.4853  23.8529

          k = 0.2750 0.2750 0.5500 (   963 PWs)   bands (ev):

    -4.0636   3.2683   9.6218   9.6270  20.4701  23.7488

          k = 0.2625 0.2625 0.5250 (   962 PWs)   bands (ev):

    -4.4096   3.7447   9.7168   9.8932  20.4477  23.6314

          k = 0.2500 0.2500 0.5000 (   956 PWs)   bands (ev):

    -4.7437   4.2359   9.8271  10.1556  20.4161  23.4753

          k = 0.2375 0.2375 0.4750 (   958 PWs)   bands (ev):

    -5.0647   4.7400   9.9522  10.4133  20.3740  23.2837

          k = 0.2250 0.2250 0.4500 (   956 PWs)   bands (ev):

    -5.3716   5.2555  10.0919  10.6655  20.3208  23.0862

          k = 0.2125 0.2125 0.4250 (   958 PWs)   bands (ev):

    -5.6639   5.7811  10.2457  10.9115  20.2563  22.8824

          k = 0.2000 0.2000 0.4000 (   948 PWs)   bands (ev):

    -5.9411   6.3153  10.4132  11.1505  20.1816  22.6717

          k = 0.1875 0.1875 0.3750 (   950 PWs)   bands (ev):

    -6.2027   6.8564  10.5937  11.3817  20.0976  22.4533

          k = 0.1750 0.1750 0.3500 (   950 PWs)   bands (ev):

    -6.4484   7.4030  10.7863  11.6046  20.0060  22.2268

          k = 0.1625 0.1625 0.3250 (   948 PWs)   bands (ev):

    -6.6779   7.9531  10.9900  11.8183  19.9088  21.9914

          k = 0.1500 0.1500 0.3000 (   951 PWs)   bands (ev):

    -6.8911   8.5046  11.2036  12.0222  19.8079  21.7467

          k = 0.1375 0.1375 0.2750 (   949 PWs)   bands (ev):

    -7.0878   9.0551  11.4256  12.2156  19.7054  21.4778

          k = 0.1250 0.1250 0.2500 (   943 PWs)   bands (ev):

    -7.2678   9.6016  11.6541  12.3975  19.6033  21.1766

          k = 0.1125 0.1125 0.2250 (   947 PWs)   bands (ev):

    -7.4309  10.1404  11.8865  12.5670  19.5033  20.8704

          k = 0.1000 0.1000 0.2000 (   946 PWs)   bands (ev):

    -7.5772  10.6674  12.1199  12.7232  19.4076  20.5641

          k = 0.0875 0.0875 0.1750 (   944 PWs)   bands (ev):

    -7.7064  11.1769  12.3505  12.8650  19.3178  20.2634

          k = 0.0750 0.0750 0.1500 (   948 PWs)   bands (ev):

    -7.8185  11.6618  12.5736  12.9913  19.2357  19.9752

          k = 0.0625 0.0625 0.1250 (   946 PWs)   bands (ev):

    -7.9135  12.1131  12.7832  13.1008  19.1629  19.7071

          k = 0.0500 0.0500 0.1000 (   944 PWs)   bands (ev):

    -7.9913  12.5189  12.9723  13.1925  19.1010  19.4678

          k = 0.0375 0.0375 0.0750 (   942 PWs)   bands (ev):

    -8.0518  12.8642  13.1328  13.2652  19.0512  19.2668

          k = 0.0250 0.0250 0.0500 (   941 PWs)   bands (ev):

    -8.0951  13.1314  13.2560  13.3179  19.0148  19.1138

          k = 0.0125 0.0125 0.0250 (   941 PWs)   bands (ev):

    -8.1210  13.3018  13.3338  13.3498  18.9925  19.0178

          k = 0.0000 0.0000 0.0000 (   941 PWs)   bands (ev):

    -8.1297  13.3605  13.3605  13.3605  18.9850  18.9850

     Writing all to output data dir output/diamond.save/ :
     XML data file, pseudopotentials, collected wavefunctions

     init_run     :      0.05s CPU      0.05s WALL (       1 calls)
     electrons    :      0.01s CPU      4.04s WALL (       1 calls)

     Called by init_run:
     wfcinit      :      0.00s CPU      0.00s WALL (       1 calls)
     potinit      :      0.01s CPU      0.01s WALL (       1 calls)
     hinit0       :      0.04s CPU      0.04s WALL (       1 calls)

     Called by electrons:
     c_bands      :      0.01s CPU      4.03s WALL (       1 calls)
     v_of_rho     :      0.00s CPU      0.01s WALL (       1 calls)

     Called by c_bands:
     init_us_2    :      0.00s CPU      0.00s WALL (      91 calls)
     cegterg      :      0.00s CPU      3.76s WALL (     244 calls)

     Called by *egterg:
     cdiaghg      :      0.00s CPU      0.07s WALL (    3989 calls)
     h_psi        :      0.01s CPU      3.37s WALL (    4233 calls)
     g_psi        :      0.00s CPU      0.01s WALL (    3898 calls)

     Called by h_psi:
     h_psi:calbec :      0.00s CPU      0.16s WALL (    4233 calls)
     vloc_psi     :      0.01s CPU      3.07s WALL (    4233 calls)
     add_vuspsi   :      0.00s CPU      0.10s WALL (    4233 calls)

     General routines
     calbec       :      0.00s CPU      0.15s WALL (    4233 calls)
     fft          :      0.00s CPU      0.01s WALL (      11 calls)
     fftw         :      0.01s CPU      2.67s WALL (   27482 calls)
     davcio       :      0.00s CPU      0.04s WALL (     182 calls)

     Parallel routines

     PWSCF        :      0.09s CPU      4.29s WALL


   This run was terminated on:  22:52:56  19Nov2025            

=------------------------------------------------------------------------------=
   JOB DONE.
=------------------------------------------------------------------------------=
