
     Program PWSCF v.7.3.1 starts on 27Nov2025 at 12: 6: 3 

     This program is part of the open-source Quantum ESPRESSO suite
     for quantum simulation of materials; please cite
         "P. Giannozzi et al., J. Phys.:Condens. Matter 21 395502 (2009);
         "P. Giannozzi et al., J. Phys.:Condens. Matter 29 465901 (2017);
         "P. Giannozzi et al., J. Chem. Phys. 152 154105 (2020);
          URL http://www.quantum-espresso.org", 
     in publications or presentations arising from this work. More details at
     http://www.quantum-espresso.org/quote

     Parallel version (MPI), running on     1 processors

     MPI processes distributed on     1 nodes
     660 MiB available memory on the printing compute node when the environment starts

     Waiting for input...
     Reading input from standard input

     Current dimensions of program PWSCF are:
     Max number of different atomic species (ntypx) = 10
     Max number of k-points (npk) =  40000
     Max angular momentum in pseudopotentials (lmaxx) =  4
     file H.upf: wavefunction(s)  1S renormalized

     Subspace diagonalization in iterative solution of the eigenvalue problem:
     a serial algorithm will be used


     G-vector sticks info
     --------------------
     sticks:   dense  smooth     PW     G-vecs:    dense   smooth      PW
     Sum       25477   25477   6369              3056521  3056521  382323

     Using Slab Decomposition



     bravais-lattice index     =            1
     lattice parameter (alat)  =      40.0000  a.u.
     unit-cell volume          =   64000.0000 (a.u.)^3
     number of atoms/cell      =            2
     number of atomic types    =            1
     number of electrons       =         2.00
     number of Kohn-Sham states=            6
     kinetic-energy cutoff     =      50.0000  Ry
     charge density cutoff     =     200.0000  Ry
     scf convergence threshold =      1.0E-06
     mixing beta               =       0.7000
     number of iterations used =            8  plain     mixing
     energy convergence thresh.=      1.0E-04
     force convergence thresh. =      1.0E-03
     Exchange-correlation= SLA  PW   PBX  PBC
                           (   1   4   3   4   0   0   0)
     nstep                     =           50


     celldm(1)=  40.000000  celldm(2)=   0.000000  celldm(3)=   0.000000
     celldm(4)=   0.000000  celldm(5)=   0.000000  celldm(6)=   0.000000

     crystal axes: (cart. coord. in units of alat)
               a(1) = (   1.000000   0.000000   0.000000 )  
               a(2) = (   0.000000   1.000000   0.000000 )  
               a(3) = (   0.000000   0.000000   1.000000 )  

     reciprocal axes: (cart. coord. in units 2 pi/alat)
               b(1) = (  1.000000  0.000000  0.000000 )  
               b(2) = (  0.000000  1.000000  0.000000 )  
               b(3) = (  0.000000  0.000000  1.000000 )  


     PseudoPot. # 1 for H  read from file:
     ./pseudo/H.upf
     MD5 check sum: 3b3666f5801cbba62f2756aeeb36b147
     Pseudo is Projector augmented-wave, Zval =  1.0
     Generated using &quot;atomic&quot; code by A. Dal Corso  v.6.3MaX
     Shape of augmentation charge: PSQ
     Using radial grid of  929 points,  2 beta functions with: 
                l(1) =   0
                l(2) =   0
     Q(r) pseudized with 0 coefficients 


     atomic species   valence    mass     pseudopotential
     H                 1.00     1.00000     H ( 1.00)

      8 Sym. Ops. (no inversion) found



   Cartesian axes

     site n.     atom                  positions (alat units)
         1        H      tau(   1) = (   0.0000000   0.0000000   0.0000000  )
         2        H      tau(   2) = (   0.3750000   0.0000000   0.0000000  )

     number of k points=     1  Gaussian smearing, width (Ry)=  0.0100
                       cart. coord. in units 2pi/alat
        k(    1) = (   0.0000000   0.0000000   0.0000000), wk =   2.0000000

     Dense  grid:  3056521 G-vectors     FFT dimensions: ( 192, 192, 192)

     Estimated max dynamical RAM per process >       2.25 GB

     Initial potential from superposition of free atoms

     starting charge       2.0000, renormalised to       2.0000

     negative rho (up, down):  5.876E-04 0.000E+00
     Starting wfcs are    2 randomized atomic wfcs +    4 random wfcs
     Checking if some PAW data can be deallocated... 

     total cpu time spent up to now is        7.9 secs

     Self-consistent Calculation

     iteration #  1     ecut=    50.00 Ry     beta= 0.70
     Davidson diagonalization with overlap
     ethr =  1.00E-02,  avg # of iterations =  5.0

     Threshold (ethr) on eigenvalues was too large:
     Diagonalizing with lowered threshold

     Davidson diagonalization with overlap
     c_bands:  4 eigenvalues not converged
     ethr =  2.86E-09,  avg # of iterations = 20.0

     negative rho (up, down):  2.579E-04 0.000E+00

     total cpu time spent up to now is       42.4 secs

     End of self-consistent calculation

          k = 0.0000 0.0000 0.0000 (382323 PWs)   bands (ev):

    -6.4855  -6.4849  -0.1379   0.1958   0.2185   0.3694

     the Fermi energy is    -6.4852 ev

!    total energy              =      -1.84688880 Ry
     total all-electron energy =        -1.846880 Ry
     estimated scf accuracy    <       0.00000005 Ry
     smearing contrib. (-TS)   =      -0.01128372 Ry
     internal energy E=F+TS    =      -1.83560508 Ry

     The total energy is F=E-TS. E is the sum of the following terms:
     one-electron contribution =      -1.72552143 Ry
     hartree contribution      =       1.02762665 Ry
     xc contribution           =      -1.00498327 Ry
     ewald contribution        =      -0.13244946 Ry
     one-center paw contrib.   =      -0.00027758 Ry

     convergence has been achieved in   1 iterations

     Forces acting on atoms (cartesian axes, Ry/au):

     atom    1 type  1   force =     0.00000066    0.00000000    0.00000000
     atom    2 type  1   force =    -0.00000066    0.00000000    0.00000000

     Total force =     0.000001     Total SCF correction =     0.000001
     SCF correction compared to forces is large: reduce conv_thr to get better values

     BFGS Geometry Optimization
     Energy error            =      8.6E-13 Ry
     Gradient error          =      6.6E-07 Ry/Bohr

     bfgs converged in   1 scf cycles and   0 bfgs steps
     (criteria: energy <  1.0E-04 Ry, force <  1.0E-03 Ry/Bohr)

     End of BFGS Geometry Optimization

     Final energy             =      -1.8468888005 Ry
Begin final coordinates

ATOMIC_POSITIONS (bohr)
H                0.0000000000        0.0000000000        0.0000000000
H               15.0000000000        0.0000000000        0.0000000000
End final coordinates



     Writing all to output data dir output/hydrogen_molecule.save/ :
     XML data file, charge density, pseudopotentials, collected wavefunctions

     init_run     :      5.40s CPU      7.85s WALL (       1 calls)
     electrons    :     27.08s CPU     34.63s WALL (       1 calls)
     forces       :      0.33s CPU      1.07s WALL (       1 calls)

     Called by init_run:
     wfcinit      :      1.80s CPU      2.61s WALL (       1 calls)
     potinit      :      1.15s CPU      2.02s WALL (       1 calls)
     hinit0       :      1.37s CPU      1.81s WALL (       1 calls)

     Called by electrons:
     c_bands      :     24.26s CPU     29.68s WALL (       2 calls)
     sum_band     :      2.07s CPU      2.45s WALL (       2 calls)
     v_of_rho     :      1.65s CPU      3.65s WALL (       2 calls)
     newd         :      0.21s CPU      0.61s WALL (       2 calls)
     PAW_pot      :      0.00s CPU      0.00s WALL (       2 calls)
     mix_rho      :      0.10s CPU      0.10s WALL (       2 calls)

     Called by c_bands:
     init_us_2    :      0.07s CPU      0.09s WALL (       6 calls)
     cegterg      :     24.22s CPU     29.64s WALL (       2 calls)

     Called by *egterg:
     cdiaghg      :      0.00s CPU      0.00s WALL (      26 calls)
     h_psi        :     21.47s CPU     26.64s WALL (      28 calls)
     s_psi        :      0.23s CPU      0.28s WALL (      28 calls)
     g_psi        :      0.09s CPU      0.10s WALL (      25 calls)

     Called by h_psi:
     h_psi:calbec :      0.28s CPU      0.35s WALL (      28 calls)
     vloc_psi     :     20.86s CPU     25.85s WALL (      28 calls)
     add_vuspsi   :      0.23s CPU      0.29s WALL (      28 calls)

     General routines
     calbec       :      0.32s CPU      0.45s WALL (      34 calls)
     fft          :      1.97s CPU      2.97s WALL (      25 calls)
     ffts         :      0.12s CPU      0.12s WALL (       2 calls)
     fftw         :     19.06s CPU     23.52s WALL (     266 calls)

     Parallel routines

     PWSCF        :     32.82s CPU     43.83s WALL


   This run was terminated on:  12: 6:47  27Nov2025            

=------------------------------------------------------------------------------=
   JOB DONE.
=------------------------------------------------------------------------------=
