LAMMPS data file via write_data, version 7 Feb 2024, timestep = 10000, units = metal

8 atoms
1 atom types

0 5.6 xlo xhi
0 5.6 ylo yhi
0 5.6 zlo zhi
0 0 0 xy xz yz

Masses

1 28.0855

Atoms # atomic

5 1 0.6088633514291614 0.6088633514291555 0.6088633514290025 0 0 0
8 1 3.424269071180705 3.4242690711807193 0.5887185117014668 0 0 0
7 1 3.4242690711806927 0.588718511701638 3.424269071180565 0 0 0
6 1 0.5887185117015645 3.424269071180741 3.4242690711805857 0 0 0
2 1 4.861281488298434 2.025730928819398 2.0257309288192755 0 0 0
3 1 2.0257309288193337 4.861281488298493 2.0257309288192293 0 0 0
4 1 2.025730928819376 2.0257309288193834 4.861281488298315 0 0 0
1 1 4.841136648570918 4.841136648570925 4.841136648570782 0 0 0

Velocities

5 -1.7644349442491813 -1.7644349442516423 -1.7644349442505023
8 3.005622120270083 3.0056221202702025 -1.5445634898234755
7 3.005622120270979 -1.5445634898223495 3.005622120270955
6 -1.5445634898231657 3.005622120269137 3.00562212027055
2 1.5445634898219265 -3.0056221202691837 -3.0056221202695363
3 -3.0056221202706075 1.544563489821971 -3.0056221202707047
4 -3.0056221202702758 -3.0056221202690745 1.5445634898221554
1 1.7644349442502918 1.7644349442508604 1.7644349442504075
