LAMMPS (7 Feb 2024 - Update 1)
OMP_NUM_THREADS environment is not set. Defaulting to 1 thread. (src/comm.cpp:98)
  using 1 OpenMP thread(s) per MPI task
Reading data file ...
  triclinic box = (0 0 0) to (5.6 5.6 5.6) with tilt (0 0 0)
  1 by 1 by 1 MPI processor grid
  reading atoms ...
  8 atoms
  read_data CPU = 0.011 seconds
Reading tersoff potential file SiCGe.tersoff with DATE: 2009-03-18
Neighbor list info ...
  update: every = 1 steps, delay = 0 steps, check = yes
  max neighbors/atom: 2000, page size: 100000
  master list distance cutoff = 3.3
  ghost atom cutoff = 3.3
  binsize = 1.65, bins = 4 4 4
  1 neighbor lists, perpetual/occasional/extra = 1 0 0
  (1) pair tersoff, perpetual
      attributes: full, newton on
      pair build: full/bin/atomonly
      stencil: full/bin/3d
      bin: standard
WARNING: Dump traj includes no atom IDs and is not sorted by ID. This may complicate post-processing tasks or visualization (src/dump.cpp:219)
Setting up Verlet run ...
  Unit style    : metal
  Current step  : 0
  Time step     : 0.001
Per MPI rank memory allocation (min/avg/max) = 3.059 | 3.059 | 3.059 Mbytes
   Step         Volume         Press           Temp          PotEng         KinEng         TotEng    
         0   175.616       -67440.147      0             -36.36341       0             -36.36341     
        10   175.616       -69088.588      129.85904     -36.481061      0.11749919    -36.363562    
        20   175.616       -71098.498      297.30548     -36.632758      0.26900825    -36.363749    
        30   175.616       -70235.647      227.65635     -36.569655      0.20598825    -36.363667    
        40   175.616       -68458.71       62.105465     -36.41965       0.05619433    -36.363456    
        50   175.616       -68918.733      100.52921     -36.454521      0.090960944   -36.36356     
        60   175.616       -70126.926      215.39902     -36.558572      0.19489756    -36.363675    
        70   175.616       -70137.183      219.64823     -36.56236       0.19874234    -36.363618    
        80   175.616       -69572.758      171.37582     -36.518659      0.15506445    -36.363595    
        90   175.616       -69068.055      111.60713     -36.464581      0.10098447    -36.363597    
       100   175.616       -68684.021      75.914141     -36.432172      0.06868871    -36.363483    
       110   175.616       -69982.732      202.64809     -36.546972      0.18336025    -36.363611    
       120   175.616       -71192.928      302.06171     -36.637085      0.27331178    -36.363773    
       130   175.616       -69340.287      149.31354     -36.49868       0.13510203    -36.363577    
       140   175.616       -67456.529      6.7580892     -36.369534      0.0061148611  -36.363419    
       150   175.616       -68832.585      116.07126     -36.468553      0.10502371    -36.363529    
       160   175.616       -71214          305.99518     -36.640631      0.27687087    -36.36376     
       170   175.616       -70517.594      243.07485     -36.583644      0.21993924    -36.363705    
       180   175.616       -68240.118      37.780167     -36.397599      0.034184289   -36.363414    
       190   175.616       -68833.189      87.419512     -36.442643      0.079099012   -36.363544    
       200   175.616       -70394.834      234.87614     -36.576228      0.21252087    -36.363708    
       210   175.616       -70222.996      226.25176     -36.568339      0.20471735    -36.363622    
       220   175.616       -69305.585      152.72631     -36.501769      0.13818998    -36.363579    
       230   175.616       -68788.234      98.189607     -36.452408      0.08884402    -36.363564    
       240   175.616       -69086.467      113.50192     -36.466229      0.10269892    -36.36353     
       250   175.616       -70232.889      224.98917     -36.567233      0.20357493    -36.363658    
       260   175.616       -70610.052      257.95511     -36.597082      0.2334032     -36.363679    
       270   175.616       -69351.7        148.83106     -36.498264      0.13466547    -36.363598    
       280   175.616       -67735.563      26.474683     -36.387416      0.02395485    -36.363461    
       290   175.616       -68461.107      88.811894     -36.443856      0.080358868   -36.363497    
       300   175.616       -70794.788      274.94901     -36.612481      0.24877965    -36.363701    
       310   175.616       -70899.186      278.67753     -36.615923      0.25215329    -36.363769    
       320   175.616       -68387.856      54.849685     -36.413077      0.049629148   -36.363448    
       330   175.616       -68493.976      60.920179     -36.4186        0.055121858   -36.363479    
       340   175.616       -70723.655      261.52992     -36.600401      0.23663777    -36.363763    
       350   175.616       -70473.551      247.64709     -36.587729      0.22407629    -36.363653    
       360   175.616       -68878.563      120.72944     -36.472763      0.10923854    -36.363525    
       370   175.616       -68485.423      78.543531     -36.434609      0.071067837   -36.363541    
       380   175.616       -69113.382      118.52479     -36.470809      0.10724372    -36.363565    
       390   175.616       -69997.229      203.66323     -36.547879      0.18427877    -36.3636      
       400   175.616       -70702.171      263.26113     -36.601913      0.23820421    -36.363709    
       410   175.616       -69647.34       166.87477     -36.514596      0.1509918     -36.363604    
       420   175.616       -68109.176      52.169989     -36.410694      0.047204502   -36.363489    
       430   175.616       -68588.497      97.211555     -36.451467      0.087959058   -36.363508    
       440   175.616       -70658.385      260.61762     -36.599491      0.2358123     -36.363679    
       450   175.616       -70922.542      277.21834     -36.6146        0.25083298    -36.363767    
       460   175.616       -68546.103      64.015325     -36.421397      0.057922411   -36.363474    
       470   175.616       -68235.413      34.822577     -36.394943      0.0315082     -36.363435    
       480   175.616       -70568.292      245.45334     -36.585822      0.22209134    -36.363731    
       490   175.616       -70882.487      280.58789     -36.617591      0.25388182    -36.363709    
       500   175.616       -68963.137      127.80678     -36.47918       0.11564226    -36.363538    
       510   175.616       -68026.921      47.003075     -36.406005      0.04252937    -36.363475    
       520   175.616       -69332.621      140.49426     -36.490704      0.12712216    -36.363582    
       530   175.616       -70545.909      249.24023     -36.589214      0.2255178     -36.363696    
       540   175.616       -70127.502      218.67602     -36.561478      0.19786265    -36.363615    
       550   175.616       -69418.431      142.17306     -36.492229      0.12864118    -36.363588    
       560   175.616       -68598.969      80.917568     -36.43676       0.073215916   -36.363544    
       570   175.616       -68703.616      102.72857     -36.456458      0.092950968   -36.363507    
       580   175.616       -70382.373      238.82291     -36.579741      0.21609199    -36.363649    
       590   175.616       -70872.782      275.70876     -36.613225      0.24946708    -36.363758    
       600   175.616       -68768.217      87.81851      -36.442986      0.079460033   -36.363526    
       610   175.616       -68030.549      25.107377     -36.386123      0.022717682   -36.363406    
       620   175.616       -70440.403      239.93156     -36.580811      0.21709512    -36.363716    
       630   175.616       -71157.872      302.12702     -36.63712       0.27337088    -36.36375     
       640   175.616       -68964.49       123.91062     -36.475648      0.11211693    -36.363531    
       650   175.616       -67766.525      23.894993     -36.385065      0.021620692   -36.363444    
       660   175.616       -69265.81       136.1552      -36.486792      0.12319609    -36.363596    
       670   175.616       -70538.662      249.56184     -36.589486      0.2258088     -36.363677    
       680   175.616       -70222.707      228.37465     -36.570286      0.20663818    -36.363648    
       690   175.616       -69258.822      130.32912     -36.481483      0.11792452    -36.363559    
       700   175.616       -68707.118      89.588262     -36.444603      0.081061342   -36.363542    
       710   175.616       -69129.067      138.05606     -36.488486      0.12491603    -36.36357     
       720   175.616       -70160.832      222.6056      -36.565041      0.20141822    -36.363623    
       730   175.616       -70493.995      244.87326     -36.585267      0.22156647    -36.3637      
       740   175.616       -69110.417      111.23967     -36.464236      0.10065199    -36.363584    
       750   175.616       -68101.861      24.750496     -36.385796      0.022394769   -36.363401    
       760   175.616       -70175.238      213.73219     -36.557054      0.19338938    -36.363665    
       770   175.616       -71384.566      318.41128     -36.651891      0.28810522    -36.363786    
       780   175.616       -69184.001      142.2352      -36.492249      0.1286974     -36.363552    
       790   175.616       -67470.981      8.5257632     -36.371138      0.0077142897  -36.363424    
       800   175.616       -68984.307      122.28262     -36.474192      0.11064388    -36.363548    
       810   175.616       -71073.597      291.75854     -36.627744      0.26398926    -36.363754    
       820   175.616       -70314.716      229.93537     -36.571705      0.20805035    -36.363655    
       830   175.616       -68739.611      83.414378     -36.438951      0.075475082   -36.363476    
       840   175.616       -68911.912      99.25456      -36.453387      0.089807612   -36.363579    
       850   175.616       -69438.538      160.60505     -36.50892       0.14531882    -36.363602    
       860   175.616       -69962.954      206.12047     -36.550096      0.18650213    -36.363593    
       870   175.616       -70268.595      228.14948     -36.570115      0.20643444    -36.36368     
       880   175.616       -69212.84       126.2876      -36.477876      0.11426767    -36.363609    
       890   175.616       -68346.697      48.649058     -36.407447      0.04401869    -36.363428    
       900   175.616       -70109.621      212.95763     -36.556353      0.19268854    -36.363664    
       910   175.616       -71129.813      302.29314     -36.637269      0.27352119    -36.363748    
       920   175.616       -69278.155      151.14741     -36.50034       0.13676135    -36.363578    
       930   175.616       -67394.541      3.2763779     -36.366389      0.0029645356  -36.363425    
       940   175.616       -68508.514      89.677946     -36.44466       0.08114249    -36.363518    
       950   175.616       -70766.591      271.66562     -36.609518      0.24580877    -36.363709    
       960   175.616       -70679.831      264.28679     -36.602851      0.23913224    -36.363719    
       970   175.616       -68764.802      88.677431     -36.443723      0.080237203   -36.363485    
       980   175.616       -68745.451      82.886917     -36.438525      0.074997825   -36.363527    
       990   175.616       -69984.982      202.35705     -36.546779      0.18309691    -36.363682    
      1000   175.616       -70094.097      216.18279     -36.559216      0.19560673    -36.363609    
      1010   175.616       -69708.524      184.61356     -36.530645      0.16704223    -36.363603    
      1020   175.616       -69171.254      125.85387     -36.477487      0.11387523    -36.363612    
      1030   175.616       -68550.61       63.923516     -36.421318      0.057839341   -36.363479    
      1040   175.616       -69674.832      172.3687      -36.519536      0.15596282    -36.363573    
      1050   175.616       -71228.997      306.31647     -36.640936      0.27716158    -36.363774    
      1060   175.616       -69800.107      187.58314     -36.533349      0.16972917    -36.36362     
      1070   175.616       -67578.914      16.151607     -36.378047      0.014614313   -36.363433    
      1080   175.616       -68362.078      77.892353     -36.433965      0.070478638   -36.363486    
      1090   175.616       -70975.673      284.50275     -36.621156      0.25742407    -36.363732    
      1100   175.616       -70891.508      276.75909     -36.614167      0.25041744    -36.36375     
      1110   175.616       -68497.658      63.240286     -36.420663      0.05722114    -36.363442    
      1120   175.616       -68599.54       64.56578      -36.421931      0.058420474   -36.363511    
      1130   175.616       -70150.275      211.8889      -36.555409      0.19172153    -36.363687    
      1140   175.616       -70341.887      236.89586     -36.57799       0.21434835    -36.363641    
      1150   175.616       -69532.047      171.52998     -36.518794      0.15520393    -36.36359     
      1160   175.616       -68835.071      104.69184     -36.45829       0.094727376   -36.363563    
      1170   175.616       -68920.557      99.437294     -36.453503      0.089972953   -36.36353     
      1180   175.616       -69863.319      193.65913     -36.538843      0.17522685    -36.363616    
      1190   175.616       -70653.421      263.78679     -36.602365      0.23867983    -36.363685    
      1200   175.616       -69870.031      187.10075     -36.532937      0.16929269    -36.363644    
      1210   175.616       -67963.986      37.327213     -36.397243      0.033774447   -36.363469    
      1220   175.616       -68254.992      66.576935     -36.423712      0.06024021    -36.363472    
      1230   175.616       -70679.25       262.32535     -36.601053      0.23735749    -36.363696    
      1240   175.616       -71044.713      292.72495     -36.628633      0.26486369    -36.363769    
      1250   175.616       -68626.885      79.789825     -36.435685      0.07219551    -36.363489    
      1260   175.616       -68175.761      35.032133     -36.395134      0.03169781    -36.363436    
      1270   175.616       -70359.471      229.99583     -36.571827      0.20810506    -36.363722    
      1280   175.616       -70750.13       268.35979     -36.606512      0.24281757    -36.363695    
      1290   175.616       -69204.25       144.08488     -36.493913      0.13037103    -36.363542    
      1300   175.616       -68545.626      81.204642     -36.437005      0.073475666   -36.363529    
      1310   175.616       -69138.154      116.25577     -36.468773      0.10519066    -36.363582    
      1320   175.616       -69804.114      185.93791     -36.53182       0.16824053    -36.36358     
      1330   175.616       -70616.264      259.22388     -36.598247      0.23455121    -36.363696    
      1340   175.616       -69935.353      190.81429     -36.536293      0.17265278    -36.36364     
      1350   175.616       -68177.874      55.734        -36.413914      0.050429294   -36.363484    
      1360   175.616       -68349.151      78.618477     -36.434629      0.07113565    -36.363493    
      1370   175.616       -70426.252      244.15487     -36.584576      0.22091646    -36.36366     
      1380   175.616       -71063.586      290.99176     -36.627065      0.26329546    -36.36377     
      1390   175.616       -68877.243      92.725603     -36.447423      0.083900074   -36.363522    
      1400   175.616       -68026.65       16.813282     -36.378615      0.015213011   -36.363402    
      1410   175.616       -70302.119      221.36439     -36.564003      0.20029515    -36.363708    
      1420   175.616       -71023.693      289.89201     -36.626029      0.26230038    -36.363729    
      1430   175.616       -69224.039      147.2013      -36.49674       0.13319083    -36.363549    
      1440   175.616       -68093.556      53.99204      -36.412345      0.048853132   -36.363492    
      1450   175.616       -69068.518      119.57766     -36.471751      0.10819638    -36.363555    
      1460   175.616       -70484.055      241.03304     -36.58178       0.21809176    -36.363688    
      1470   175.616       -70349.549      236.52404     -36.577657      0.21401192    -36.363645    
      1480   175.616       -69445.367      148.83894     -36.498247      0.1346726     -36.363574    
      1490   175.616       -68571.443      81.68064      -36.437457      0.073906359   -36.36355     
      1500   175.616       -68456.194      86.033203     -36.441349      0.07784465    -36.363505    
      1510   175.616       -69974.5        208.55544     -36.552308      0.18870534    -36.363603    
      1520   175.616       -71036.555      290.66608     -36.626766      0.26300078    -36.363765    
      1530   175.616       -69254.519      129.07223     -36.480386      0.11678726    -36.363599    
      1540   175.616       -67898.273      9.9702751     -36.372389      0.0090213144  -36.363368    
      1550   175.616       -70219.127      217.71279     -36.560698      0.19699111    -36.363707    
      1560   175.616       -71200.824      307.17441     -36.641691      0.27793786    -36.363754    
      1570   175.616       -69186.834      146.60659     -36.496203      0.13265272    -36.36355     
      1580   175.616       -67715.447      27.157193     -36.388026      0.024572399   -36.363453    
      1590   175.616       -68771.658      102.21292     -36.456041      0.0924844     -36.363557    
      1600   175.616       -70291.2        228.20897     -36.570141      0.20648827    -36.363652    
      1610   175.616       -70506.307      251.06476     -36.590847      0.22716867    -36.363679    
      1620   175.616       -69525.625      154.20066     -36.503101      0.139524      -36.363577    
      1630   175.616       -68738.538      89.699011     -36.4447        0.08116155    -36.363539    
      1640   175.616       -68945.951      122.41936     -36.474336      0.11076761    -36.363569    
      1650   175.616       -69926.869      202.73604     -36.547035      0.18343983    -36.363596    
      1660   175.616       -70639.65       257.89695     -36.597057      0.23335058    -36.363707    
      1670   175.616       -69439.497      143.27788     -36.493265      0.12964084    -36.363625    
      1680   175.616       -68008.672      15.262648     -36.377206      0.013809965   -36.363396    
      1690   175.616       -69727.627      172.32018     -36.519529      0.15591892    -36.36361     
      1700   175.616       -71405.406      321.51518     -36.654705      0.29091369    -36.363792    
      1710   175.616       -69684.241      183.81678     -36.529922      0.16632129    -36.363601    
      1720   175.616       -67567.549      16.65479      -36.378499      0.015069604   -36.363429    
      1730   175.616       -68545.328      86.909173     -36.442144      0.078637246   -36.363507    
      1740   175.616       -70861.897      272.28164     -36.610101      0.24636615    -36.363735    
      1750   175.616       -70550.976      252.84738     -36.592469      0.22878162    -36.363687    
      1760   175.616       -68954.703      104.89715     -36.458406      0.094913149   -36.363492    
      1770   175.616       -68905.049      93.80664      -36.448449      0.084878219   -36.363571    
      1780   175.616       -69288.467      144.46868     -36.494307      0.1307183     -36.363588    
      1790   175.616       -69925.651      202.74438     -36.547045      0.18344737    -36.363598    
      1800   175.616       -70380.383      237.76136     -36.578808      0.21513148    -36.363676    
      1810   175.616       -69420.207      147.0397      -36.496671      0.13304461    -36.363627    
      1820   175.616       -68246.048      40.660287     -36.400227      0.036790282   -36.363436    
      1830   175.616       -69551.262      166.26176     -36.51403       0.15043714    -36.363593    
      1840   175.616       -71196.985      307.7137      -36.642188      0.27842582    -36.363763    
      1850   175.616       -69910.567      197.0161      -36.5419        0.17826431    -36.363636    
      1860   175.616       -67623.637      14.466459     -36.376515      0.013089556   -36.363426    
      1870   175.616       -68334.313      69.08478      -36.426004      0.062509361   -36.363494    
      1880   175.616       -70701.363      261.67503     -36.600482      0.23676907    -36.363713    
      1890   175.616       -70741.38       271.6111      -36.609473      0.24575943    -36.363714    
      1900   175.616       -68920.566      106.92442     -36.46026       0.09674746    -36.363512    
      1910   175.616       -68586.225      69.708827     -36.426577      0.063074012   -36.363503    
      1920   175.616       -69733.838      180.08675     -36.526599      0.16294627    -36.363653    
      1930   175.616       -70187.904      223.53736     -36.565894      0.2022613     -36.363633    
      1940   175.616       -69847.467      195.80198     -36.540769      0.17716575    -36.363603    
      1950   175.616       -69322.522      138.64169     -36.489063      0.12544591    -36.363617    
      1960   175.616       -68626.577      67.567083     -36.42464       0.061136116   -36.363504    
      1970   175.616       -69345.325      144.01173     -36.493836      0.13030484    -36.363531    
      1980   175.616       -71167.503      302.06364     -36.637085      0.27331353    -36.363771    
      1990   175.616       -70170.469      216.13601     -36.559222      0.1955644     -36.363657    
      2000   175.616       -67717.122      25.785832     -36.386769      0.023331563   -36.363437    
      2010   175.616       -68079.272      56.730835     -36.4148        0.051331252   -36.363469    
      2020   175.616       -70676.037      262.08036     -36.600836      0.23713581    -36.3637      
      2030   175.616       -71107.412      295.32086     -36.630982      0.26721252    -36.36377     
      2040   175.616       -68789.675      88.872118     -36.443892      0.08041336    -36.363479    
      2050   175.616       -68386.735      47.195607     -36.406176      0.042703577   -36.363472    
      2060   175.616       -69978.371      196.00218     -36.541031      0.17734689    -36.363684    
      2070   175.616       -70344.917      235.91664     -36.577107      0.21346234    -36.363645    
      2080   175.616       -69653.531      180.91796     -36.527286      0.16369837    -36.363587    
      2090   175.616       -69016.221      121.59857     -36.47362       0.11002494    -36.363595    
      2100   175.616       -68809.143      89.221323     -36.444242      0.080729328   -36.363512    
      2110   175.616       -69787.702      182.31992     -36.528577      0.16496689    -36.36361     
      2120   175.616       -70732.168      270.08866     -36.608079      0.2443819     -36.363697    
      2130   175.616       -69941.036      198.50555     -36.543251      0.17961199    -36.363639    
      2140   175.616       -68020.707      47.720917     -36.406668      0.043178888   -36.363489    
      2150   175.616       -67866.587      41.776123     -36.401256      0.037799914   -36.363456    
      2160   175.616       -70125.255      221.59268     -36.564138      0.20050171    -36.363636    
      2170   175.616       -71266.173      311.99365     -36.646084      0.28229841    -36.363786    
      2180   175.616       -69183.13       126.87814     -36.478369      0.114802      -36.363567    
      2190   175.616       -68023.447      19.292802     -36.380848      0.017456533   -36.363392    
      2200   175.616       -70140.576      208.50926     -36.552381      0.18866356    -36.363718    
      2210   175.616       -70763.27       270.00168     -36.608002      0.2443032     -36.363698    
      2220   175.616       -69371.404      160.36931     -36.508658      0.14510552    -36.363553    
      2230   175.616       -68557.498      88.930474     -36.444003      0.080466162   -36.363537    
      2240   175.616       -68866.595      98.463027     -36.452656      0.089091416   -36.363564    
      2250   175.616       -69579.062      163.5294      -36.511524      0.14796483    -36.363559    
      2260   175.616       -70660.482      262.0267      -36.600784      0.23708726    -36.363696    
      2270   175.616       -70244.108      218.11665     -36.56102       0.19735653    -36.363664    
      2280   175.616       -68407.855      73.081195     -36.429632      0.066125401   -36.363507    
      2290   175.616       -68075.376      56.298726     -36.414417      0.05094027    -36.363477    
      2300   175.616       -70041.692      211.35981     -36.55486       0.19124279    -36.363617    
      2310   175.616       -71268.304      308.46483     -36.642892      0.27910546    -36.363787    
      2320   175.616       -69313.489      133.66494     -36.484519      0.12094284    -36.363577    
      2330   175.616       -67895.905      4.7710291     -36.367701      0.0043169273  -36.363384    
      2340   175.616       -69864.554      181.10972     -36.52753       0.16387188    -36.363658    
      2350   175.616       -71054.233      293.68833     -36.629476      0.26573537    -36.363741    
      2360   175.616       -69629.205      180.97313     -36.527336      0.1637483     -36.363587    
      2370   175.616       -68166.469      61.077929     -36.418752      0.055264594   -36.363487    
      2380   175.616       -68795.581      98.16683      -36.45236       0.088823411   -36.363536    
      2390   175.616       -70238.336      218.71998     -36.56157       0.19790244    -36.363668    
      2400   175.616       -70349.375      240.08395     -36.580881      0.217233      -36.363648    
      2410   175.616       -69743.517      174.64209     -36.521619      0.15801983    -36.363599    
      2420   175.616       -68830.692      96.10074      -36.450522      0.086953969   -36.363568    
      2430   175.616       -68340.807      71.157816     -36.427873      0.064385087   -36.363487    
      2440   175.616       -69821.499      193.64168     -36.538806      0.17521106    -36.363595    
      2450   175.616       -71108.798      296.85501     -36.632359      0.26860065    -36.363759    
      2460   175.616       -69546.154      157.65582     -36.506279      0.1426503     -36.363629    
      2470   175.616       -67786.231      2.4704216     -36.365607      0.0022352893  -36.363372    
      2480   175.616       -69617.171      167.21078     -36.514921      0.15129582    -36.363626    
      2490   175.616       -71314.546      315.12789     -36.648914      0.28513434    -36.36378     
      2500   175.616       -69762.026      188.16986     -36.533861      0.17026004    -36.363601    
      2510   175.616       -67882.864      35.297686     -36.395383      0.031938088   -36.363445    
      2520   175.616       -68703.181      90.834746     -36.445736      0.082189187   -36.363547    
      2530   175.616       -70250.969      220.06076     -36.562777      0.1991156     -36.363661    
      2540   175.616       -70411.44       245.89071     -36.586145      0.22248708    -36.363658    
      2550   175.616       -69670.038      170.06631     -36.51748       0.15387957    -36.363601    
      2560   175.616       -68785.824      92.477593     -36.447213      0.08367567    -36.363537    
      2570   175.616       -68760.57       106.03209     -36.459487      0.09594006    -36.363546    
      2580   175.616       -69811.125      194.8213      -36.539877      0.1762784     -36.363599    
      2590   175.616       -70655          261.11672     -36.599958      0.2362639     -36.363694    
      2600   175.616       -69712.221      167.49621     -36.515207      0.1515541     -36.363653    
      2610   175.616       -68054.844      17.933115     -36.379637      0.01622626    -36.363411    
      2620   175.616       -69340.525      139.00702     -36.489335      0.12577647    -36.363559    
      2630   175.616       -71413.071      320.77566     -36.654048      0.29024456    -36.363803    
      2640   175.616       -70039.922      209.99497     -36.553635      0.19000786    -36.363627    
      2650   175.616       -67724.418      28.808077     -36.389508      0.026066153   -36.363442    
      2660   175.616       -68279.343      67.355043     -36.424435      0.060944258   -36.363491    
      2670   175.616       -70594.107      250.578       -36.590429      0.22672824    -36.363701    
      2680   175.616       -70805.124      272.45216     -36.610239      0.24652044    -36.363719    
      2690   175.616       -69141.014      122.55971     -36.474402      0.1108946     -36.363507    
      2700   175.616       -68763.642      84.119552     -36.439658      0.076113139   -36.363545    
      2710   175.616       -69162.217      134.68736     -36.485465      0.12186795    -36.363597    
      2720   175.616       -69700.948      185.77711     -36.531674      0.16809504    -36.363579    
      2730   175.616       -70365.114      237.45541     -36.578513      0.21485464    -36.363658    
      2740   175.616       -69785.67       179.20164     -36.525828      0.16214541    -36.363683    
      2750   175.616       -68269.679      40.099786     -36.399712      0.036283129   -36.363428    
      2760   175.616       -69379.877      146.35682     -36.496004      0.13242673    -36.363578    
      2770   175.616       -71185.313      306.67615     -36.641253      0.27748702    -36.363766    
      2780   175.616       -70054.147      214.30548     -36.557549      0.1939081     -36.363641    
      2790   175.616       -67708.313      28.815883     -36.389523      0.026073216   -36.363449    
      2800   175.616       -67862.592      39.578906     -36.39928       0.035811826   -36.363468    
      2810   175.616       -70147.657      220.567       -36.563229      0.19957366    -36.363655    
      2820   175.616       -70983.362      291.0954      -36.627127      0.26338924    -36.363738    
      2830   175.616       -69401.146      148.27184     -36.497731      0.13415947    -36.363572    
      2840   175.616       -68513.752      61.594873     -36.419201      0.055732336   -36.363469    
      2850   175.616       -69580.847      164.96896     -36.512926      0.14926738    -36.363659    
      2860   175.616       -70073.286      214.13309     -36.557376      0.19375212    -36.363624    
      2870   175.616       -69914.91       202.14068     -36.546503      0.18290114    -36.363601    
      2880   175.616       -69491.015      158.25369     -36.506828      0.14319126    -36.363636    
      2890   175.616       -68594.906      67.301867     -36.424408      0.060896143   -36.363511    
      2900   175.616       -69029.131      112.56995     -36.465352      0.10185566    -36.363496    
      2910   175.616       -71021.786      289.48159     -36.625681      0.26192903    -36.363752    
      2920   175.616       -70569.036      250.79256     -36.590618      0.22692238    -36.363695    
      2930   175.616       -68045.495      52.020699     -36.410539      0.047069421   -36.363469    
      2940   175.616       -67724.783      28.386478     -36.389123      0.025684681   -36.363438    
      2950   175.616       -70253.787      225.74589     -36.567915      0.20425962    -36.363655    
      2960   175.616       -71333.931      314.79585     -36.64863       0.2848339     -36.363796    
      2970   175.616       -69166.852      125.76935     -36.477322      0.11379875    -36.363524    
      2980   175.616       -68294.269      38.297418     -36.398106      0.034652309   -36.363453    
      2990   175.616       -69690.203      167.68043     -36.515375      0.15172077    -36.363654    
      3000   175.616       -70332.192      235.41932     -36.576665      0.21301235    -36.363653    
      3010   175.616       -69883.197      200.16492     -36.544721      0.18111343    -36.363607    
      3020   175.616       -69122.807      132.44422     -36.483426      0.11983831    -36.363587    
      3030   175.616       -68754.267      86.284891     -36.441599      0.078072383   -36.363527    
      3040   175.616       -69398.647      148.65041     -36.49807       0.13450202    -36.363568    
      3050   175.616       -70541.039      256.90856     -36.596134      0.23245626    -36.363677    
      3060   175.616       -70417.868      235.45512     -36.576731      0.21304474    -36.363686    
      3070   175.616       -68453.041      74.512829     -36.430938      0.067420774   -36.363517    
      3080   175.616       -67752.271      25.33232      -36.386353      0.022921215   -36.363432    
      3090   175.616       -69966.029      203.51133     -36.547769      0.18414133    -36.363628    
      3100   175.616       -71338.213      317.63277     -36.651186      0.2874008     -36.363785    
      3110   175.616       -69418.937      151.72154     -36.500871      0.13728084    -36.36359     
      3120   175.616       -67915.25       13.14884      -36.37529       0.011897347   -36.363393    
      3130   175.616       -69656.625      167.22202     -36.514955      0.151306      -36.363649    
      3140   175.616       -70857.254      276.37858     -36.613798      0.25007314    -36.363725    
      3150   175.616       -69751.827      188.35324     -36.534012      0.17042597    -36.363586    
      3160   175.616       -68673.15       96.008893     -36.450395      0.086870864   -36.363524    
      3170   175.616       -68938.313      100.4313      -36.45445       0.090872347   -36.363578    
      3180   175.616       -69470.673      150.91367     -36.500107      0.13654986    -36.363557    
      3190   175.616       -70437.061      246.00323     -36.586253      0.2225889     -36.363664    
      3200   175.616       -70466.844      237.73826     -36.578806      0.21511057    -36.363695    
      3210   175.616       -68612.322      87.710859     -36.442881      0.079362628   -36.363518    
      3220   175.616       -67907.822      42.337959     -36.401768      0.038308275   -36.36346     
      3230   175.616       -69758.276      191.03703     -36.536456      0.17285432    -36.363601    
      3240   175.616       -71252.072      309.55279     -36.643861      0.28008987    -36.363771    
      3250   175.616       -69679.451      165.47617     -36.51335       0.14972631    -36.363624    
      3260   175.616       -67869.091      2.4985242     -36.365638      0.0022607172  -36.363377    
      3270   175.616       -69527.206      151.46449     -36.500666      0.13704825    -36.363617    
      3280   175.616       -71085.108      294.00343     -36.629779      0.26602048    -36.363758    
      3290   175.616       -69863.311      197.49863     -36.542296      0.17870091    -36.363596    
      3300   175.616       -68336.012      75.50835      -36.431829      0.068321542   -36.363507    
      3310   175.616       -68632.003      86.390468     -36.441695      0.078167911   -36.363527    
      3320   175.616       -70052.774      200.96488     -36.545477      0.18183725    -36.36364     
      3330   175.616       -70553.221      254.03303     -36.593534      0.22985442    -36.36368     
      3340   175.616       -69826.488      185.14517     -36.531118      0.16752324    -36.363594    
      3350   175.616       -68801.566      98.375996     -36.452576      0.089012669   -36.363563    
      3360   175.616       -68181.075      62.515114     -36.420063      0.056564989   -36.363498    
      3370   175.616       -69338.378      159.04007     -36.507456      0.14390279    -36.363554    
      3380   175.616       -71011.965      290.95252     -36.626991      0.26325995    -36.363731    
      3390   175.616       -70108.043      205.64972     -36.549786      0.18607619    -36.36371     
      3400   175.616       -67864.99       6.2982786     -36.369063      0.0056988148  -36.363364    
      3410   175.616       -69350.448      139.7688      -36.490065      0.12646574    -36.3636      
      3420   175.616       -71280.958      312.02925     -36.646117      0.28233062    -36.363787    
      3430   175.616       -69931.729      206.14481     -36.550133      0.18652416    -36.363609    
      3440   175.616       -67965.372      49.536277     -36.408287      0.044821464   -36.363466    
      3450   175.616       -68286.32       65.908891     -36.423156      0.05963575    -36.363521    
      3460   175.616       -69821.988      186.61402     -36.532473      0.16885229    -36.363621    
      3470   175.616       -70557.396      255.58327     -36.59493       0.23125712    -36.363673    
      3480   175.616       -70011.628      200.41432     -36.544974      0.18133909    -36.363635    
      3490   175.616       -68907.762      101.14566     -36.455051      0.091518718   -36.363532    
      3500   175.616       -68662.426      96.602275     -36.450963      0.087407769   -36.363556    
      3510   175.616       -69498.65       168.88543     -36.516381      0.15281109    -36.36357     
      3520   175.616       -70651.607      260.27398     -36.599185      0.23550136    -36.363684    
      3530   175.616       -70082.317      203.06647     -36.547434      0.18373881    -36.363695    
      3540   175.616       -68148.905      27.028685     -36.387885      0.024456122   -36.363429    
      3550   175.616       -68903.556      97.663816     -36.451875      0.088368273   -36.363507    
      3560   175.616       -71203.719      303.39886     -36.638304      0.27452167    -36.363783    
      3570   175.616       -70477.645      247.9343      -36.58801       0.22433617    -36.363674    
      3580   175.616       -68033          54.110999     -36.412427      0.048960769   -36.363467    
      3590   175.616       -67936.75       40.543185     -36.400141      0.036684326   -36.363457    
      3600   175.616       -70235.832      219.27439     -36.562073      0.19840408    -36.363669    
      3610   175.616       -70910.857      282.6596      -36.619494      0.25575635    -36.363737    
      3620   175.616       -69395.463      149.37199     -36.498688      0.13515492    -36.363533    
      3630   175.616       -68875.115      90.159543     -36.445125      0.081578249   -36.363547    
      3640   175.616       -69056.96       120.16502     -36.472312      0.10872783    -36.363584    
      3650   175.616       -69592.703      175.70173     -36.522553      0.15897862    -36.363575    
      3660   175.616       -70438.353      243.2575      -36.583767      0.2201045     -36.363662    
      3670   175.616       -69970.573      197.46494     -36.542351      0.17867043    -36.363681    
      3680   175.616       -68363.277      50.423007     -36.409091      0.045623796   -36.363467    
      3690   175.616       -68818.74       99.433186     -36.453476      0.089969236   -36.363506    
      3700   175.616       -70939.601      287.21393     -36.623621      0.2598772     -36.363743    
      3710   175.616       -70664.085      259.6238      -36.598619      0.23491307    -36.363706    
      3720   175.616       -68157.996      56.738271     -36.414809      0.05133798    -36.363471    
      3730   175.616       -67768.191      24.149337     -36.385292      0.021850828   -36.363441    
      3740   175.616       -70078.19       207.88046     -36.551753      0.18809461    -36.363658    
      3750   175.616       -71001.204      292.1219      -36.628054      0.26431804    -36.363736    
      3760   175.616       -69501.531      162.43167     -36.510551      0.14697159    -36.363579    
      3770   175.616       -68504.389      63.06113      -36.420537      0.057059035   -36.363478    
      3780   175.616       -69285.054      138.75864     -36.489163      0.12555173    -36.363612    
      3790   175.616       -70063.548      212.9827      -36.556351      0.19271122    -36.363639    
      3800   175.616       -70053.811      213.51455     -36.556805      0.19319246    -36.363612    
      3810   175.616       -69615          169.07285     -36.516609      0.15298067    -36.363629    
      3820   175.616       -68777.889      80.462278     -36.43635       0.07280396    -36.363546    
      3830   175.616       -68790.88       90.776439     -36.445606      0.082136429   -36.36347     
      3840   175.616       -70782.229      270.58329     -36.608554      0.24482945    -36.363725    
      3850   175.616       -70874.533      274.44613     -36.612057      0.24832462    -36.363732    
      3860   175.616       -68315.718      71.524032     -36.428201      0.064716447   -36.363484    
      3870   175.616       -67565.482      16.316143     -36.378192      0.014763189   -36.363429    
      3880   175.616       -69886.624      198.5683      -36.543293      0.17966877    -36.363624    
      3890   175.616       -71366.441      318.39218     -36.651879      0.28808793    -36.363791    
      3900   175.616       -69548.066      157.94351     -36.506485      0.14291061    -36.363574    
      3910   175.616       -68204.803      32.152887     -36.392521      0.029092608   -36.363428    
      3920   175.616       -69461.364      147.79746     -36.497366      0.13373025    -36.363636    
      3930   175.616       -70284.382      230.50085     -36.572225      0.20856201    -36.363663    
      3940   175.616       -69915.406      201.86957     -36.546249      0.18265583    -36.363593    
      3950   175.616       -69342.777      152.02838     -36.501175      0.13755847    -36.363617    
      3960   175.616       -68773.412      88.376073     -36.443499      0.079964528   -36.363535    
      3970   175.616       -69263.184      132.3442      -36.483292      0.11974781    -36.363544    
      3980   175.616       -70621.866      260.32857     -36.599248      0.23555076    -36.363697    
      3990   175.616       -70458.916      243.67888     -36.584161      0.22048577    -36.363676    
      4000   175.616       -68527.613      88.05839      -36.443208      0.079677082   -36.363531    
      4010   175.616       -67504.626      13.68041      -36.375815      0.012378323   -36.363437    
      4020   175.616       -69284.5        155.56704     -36.504328      0.14076033    -36.363567    
      4030   175.616       -71240.355      311.70647     -36.6458        0.28203856    -36.363761    
      4040   175.616       -70081.815      207.46178     -36.551398      0.18771578    -36.363682    
      4050   175.616       -67991.143      17.798879     -36.379482      0.0161048     -36.363377    
      4060   175.616       -69393.256      140.83225     -36.491054      0.12742798    -36.363626    
      4070   175.616       -70800.877      271.28069     -36.609195      0.24546047    -36.363735    
      4080   175.616       -69851.842      198.51997     -36.543211      0.17962504    -36.363586    
      4090   175.616       -68774.528      110.63415     -36.463645      0.10010411    -36.363541    
      4100   175.616       -68732.526      91.359756     -36.446232      0.082664227   -36.363568    
      4110   175.616       -69175.779      124.93445     -36.476576      0.11304332    -36.363533    
      4120   175.616       -70365.165      236.60839     -36.57774       0.21408825    -36.363652    
      4130   175.616       -70719.169      260.98927     -36.599864      0.23614858    -36.363715    
      4140   175.616       -68961.595      115.81548     -36.468339      0.10479228    -36.363547    
      4150   175.616       -67804.319      33.540331     -36.39381       0.030347996   -36.363462    
      4160   175.616       -69267.324      150.12878     -36.499392      0.13583968    -36.363553    
      4170   175.616       -71248.008      307.90332     -36.642361      0.2785974     -36.363764    
      4180   175.616       -70172.086      211.3182      -36.554889      0.19120515    -36.363684    
      4190   175.616       -67955.251      11.446518     -36.373743      0.01035705    -36.363386    
      4200   175.616       -69086.501      110.10739     -36.463192      0.099627479   -36.363564    
      4210   175.616       -70905.821      279.26243     -36.616429      0.25268251    -36.363747    
      4220   175.616       -70224.127      228.95311     -36.570798      0.20716158    -36.363636    
      4230   175.616       -68560.664      94.576163     -36.44909       0.0855745     -36.363516    
      4240   175.616       -68436.115      72.429221     -36.429045      0.065535481   -36.363509    
      4250   175.616       -69762.01       175.25446     -36.522195      0.15857392    -36.363621    
      4260   175.616       -70390.989      242.91446     -36.58346       0.21979411    -36.363666    
      4270   175.616       -70051.393      207.32541     -36.551208      0.18759239    -36.363615    
      4280   175.616       -69213.596      125.85584     -36.477474      0.11387701    -36.363597    
      4290   175.616       -68200.054      56.1126       -36.414259      0.05077186    -36.363487    
      4300   175.616       -69154.429      139.8175      -36.490048      0.12650981    -36.363539    
      4310   175.616       -71024.32       290.38552     -36.626478      0.26274693    -36.363731    
      4320   175.616       -70335.313      228.17486     -36.570171      0.20645741    -36.363714    
      4330   175.616       -67978.066      19.886275     -36.3814        0.017993519   -36.363406    
      4340   175.616       -68733.737      88.904411     -36.443956      0.080442579   -36.363514    
      4350   175.616       -71082.697      295.07732     -36.630766      0.26699216    -36.363774    
      4360   175.616       -70515.817      249.12311     -36.589085      0.22541182    -36.363674    
      4370   175.616       -68307.275      70.703514     -36.427448      0.063974026   -36.363474    
      4380   175.616       -68264.26       57.667197     -36.41568       0.052178491   -36.363502    
      4390   175.616       -69844.895      181.47988     -36.527845      0.16420681    -36.363639    
      4400   175.616       -70423.552      244.92509     -36.585266      0.22161337    -36.363653    
      4410   175.616       -70034.376      207.2594      -36.551169      0.18753266    -36.363637    
      4420   175.616       -69069.526      114.80385     -36.467433      0.10387694    -36.363556    
      4430   175.616       -68520.83       82.963836     -36.438593      0.075067422   -36.363526    
      4440   175.616       -69344.127      157.45822     -36.506042      0.14247151    -36.363571    
      4450   175.616       -70589.029      257.66828     -36.596817      0.23314367    -36.363673    
      4460   175.616       -70277.708      221.40564     -36.564036      0.20033247    -36.363704    
      4470   175.616       -68367.941      44.622518     -36.403844      0.040375392   -36.363468    
      4480   175.616       -68568.244      68.676795     -36.425599      0.062140207   -36.363459    
      4490   175.616       -71040.762      288.7421      -36.625034      0.26125992    -36.363774    
      4500   175.616       -70780.321      269.5737      -36.607619      0.24391595    -36.363703    
      4510   175.616       -68293.146      73.268861     -36.429776      0.066295205   -36.363481    
      4520   175.616       -67817.53       32.677942     -36.393026      0.029567689   -36.363458    
      4530   175.616       -69883.667      191.80281     -36.537176      0.17354721    -36.363629    
      4540   175.616       -71021.186      289.80143     -36.625967      0.26221843    -36.363748    
      4550   175.616       -69695.545      174.55864     -36.521513      0.15794433    -36.363568    
      4560   175.616       -68769.564      84.949818     -36.440382      0.07686438    -36.363517    
      4570   175.616       -68925.448      111.18762     -36.464193      0.1006049     -36.363588    
      4580   175.616       -69358.76       159.00929     -36.507443      0.14387495    -36.363568    
      4590   175.616       -70236.005      228.2482      -36.570148      0.20652377    -36.363624    
      4600   175.616       -70307.161      227.13765     -36.569244      0.20551892    -36.363725    
      4610   175.616       -68592.195      68.634724     -36.4256        0.06210214    -36.363497    
      4620   175.616       -68643.686      78.514383     -36.434515      0.071041463   -36.363474    
      4630   175.616       -70901.914      281.07574     -36.618078      0.25432324    -36.363754    
      4640   175.616       -70725.14       269.50649     -36.607555      0.24385514    -36.3637      
      4650   175.616       -68294.222      76.608118     -36.432811      0.069316635   -36.363495    
      4660   175.616       -67448.759      9.482369      -36.372018      0.0085798467  -36.363438    
      4670   175.616       -69351.844      156.98379     -36.505635      0.14204223    -36.363593    
      4680   175.616       -70949.818      288.23315     -36.624523      0.26079941    -36.363724    
      4690   175.616       -70095.185      212.07643     -36.555547      0.19189121    -36.363656    
      4700   175.616       -68605.514      71.028335     -36.42773       0.06426793    -36.363462    
      4710   175.616       -69140.365      123.30582     -36.475176      0.1115697     -36.363607    
      4720   175.616       -69912.754      200.31517     -36.544889      0.18124937    -36.36364     
      4730   175.616       -70006.195      209.56217     -36.553213      0.18961626    -36.363597    
      4740   175.616       -69803.935      189.43139     -36.53505       0.17140151    -36.363648    
      4750   175.616       -68856.746      92.925605     -36.447646      0.08408104    -36.363564    
      4760   175.616       -68524.001      64.596237     -36.421894      0.058448033   -36.363446    
      4770   175.616       -70476.093      241.90161     -36.582563      0.21887766    -36.363685    
      4780   175.616       -71124.839      297.92765     -36.633328      0.2695712     -36.363757    
      4790   175.616       -68809.811      112.23297     -36.465082      0.10155075    -36.363532    
      4800   175.616       -67413.945      4.4180828     -36.367415      0.0039975742  -36.363417    
      4810   175.616       -69334.739      152.35553     -36.501423      0.13785448    -36.363569    
      4820   175.616       -71380.342      318.26647     -36.651768      0.28797419    -36.363793    
      4830   175.616       -69978.793      199.78786     -36.5444        0.18077226    -36.363628    
      4840   175.616       -68285.472      40.791259     -36.400338      0.036908789   -36.363429    
      4850   175.616       -69197.009      120.17203     -36.472339      0.10873418    -36.363604    
      4860   175.616       -70138.948      217.71943     -36.560652      0.19699712    -36.363655    
      4870   175.616       -70107.121      218.68911     -36.561493      0.1978745     -36.363619    
      4880   175.616       -69498.098      166.01858     -36.513826      0.1502171     -36.363609    
      4890   175.616       -68808.545      94.53338      -36.449085      0.085535789   -36.363549    
      4900   175.616       -68945.974      105.17873     -36.45869       0.095167924   -36.363522    
      4910   175.616       -70175.705      225.90197     -36.568047      0.20440085    -36.363646    
      4920   175.616       -70791.331      270.88979     -36.608821      0.24510678    -36.363714    
      4930   175.616       -69176.179      131.7381      -36.482783      0.1191994     -36.363583    
      4940   175.616       -67566.623      8.8567547     -36.371433      0.0080137777  -36.363419    
      4950   175.616       -69117.717      134.28205     -36.485052      0.12150122    -36.363551    
      4960   175.616       -71276.469      311.35315     -36.645488      0.28171888    -36.363769    
      4970   175.616       -70235.874      224.74086     -36.567031      0.20335026    -36.36368     
      4980   175.616       -68057.89       28.86125      -36.389525      0.026114265   -36.363411    
      4990   175.616       -68903.958      100.23707     -36.45425       0.090696605   -36.363553    
      5000   175.616       -70659.252      258.46686     -36.597595      0.23386625    -36.363728    
      5010   175.616       -70250.7        228.36042     -36.57026       0.20662531    -36.363634    
      5020   175.616       -68967.86       123.44912     -36.475233      0.11169936    -36.363534    
      5030   175.616       -68830.896      95.71482      -36.450175      0.08660478    -36.36357     
      5040   175.616       -69203.496      121.97471     -36.473918      0.11036528    -36.363553    
      5050   175.616       -70061.433      212.80968     -36.556165      0.19255467    -36.36361     
      5060   175.616       -70785.332      268.81022     -36.606953      0.24322514    -36.363728    
      5070   175.616       -69270.004      139.2848      -36.489605      0.12602781    -36.363577    
      5080   175.616       -67750.89       27.557761     -36.38838       0.024934841   -36.363445    
      5090   175.616       -68984.672      129.76052     -36.480951      0.11741005    -36.363541    
      5100   175.616       -71075.288      297.11216     -36.632571      0.26883332    -36.363738    
      5110   175.616       -70468.76       237.51681     -36.578624      0.2149102     -36.363714    
      5120   175.616       -68134.447      26.533901     -36.387421      0.024008431   -36.363412    
      5130   175.616       -68746.029      81.072645     -36.43687       0.073356233   -36.363513    
      5140   175.616       -70819.303      270.03334     -36.608088      0.24433184    -36.363756    
      5150   175.616       -70401.065      240.36319     -36.581131      0.21748567    -36.363645    
      5160   175.616       -68773.091      111.17084     -36.464119      0.10058971    -36.363529    
      5170   175.616       -68424.932      73.650995     -36.430167      0.066640968   -36.363526    
      5180   175.616       -69505.346      152.92017     -36.501947      0.13836538    -36.363582    
      5190   175.616       -70532.236      249.81869     -36.58973       0.2260412     -36.363689    
      5200   175.616       -70211.136      221.82118     -36.564335      0.20070846    -36.363627    
      5210   175.616       -69148.242      127.13904     -36.478615      0.11503807    -36.363577    
      5220   175.616       -68106.844      54.949339     -36.413225      0.049719317   -36.363506    
      5230   175.616       -68666.632      107.41424     -36.460702      0.097190665   -36.363511    
      5240   175.616       -70622.129      261.45738     -36.600244      0.23657213    -36.363672    
      5250   175.616       -70833.005      270.8709      -36.608868      0.24508969    -36.363778    
      5260   175.616       -68356.252      50.025767     -36.408715      0.045264365   -36.363451    
      5270   175.616       -68473.764      61.211339     -36.418852      0.055385306   -36.363466    
      5280   175.616       -70990.796      284.79246     -36.621474      0.2576862     -36.363788    
      5290   175.616       -70591.374      258.81615     -36.597852      0.23418229    -36.36367     
      5300   175.616       -68453.852      90.57887      -36.445454      0.081957665   -36.363496    
      5310   175.616       -67974.909      46.024865     -36.40514       0.041644265   -36.363495    
      5320   175.616       -69260.08       140.09432     -36.490348      0.12676028    -36.363587    
      5330   175.616       -70369.499      237.55808     -36.578594      0.21494754    -36.363646    
      5340   175.616       -70416.95       239.53863     -36.580419      0.21673958    -36.363679    
      5350   175.616       -69290.172      133.49462     -36.484345      0.12078874    -36.363557    
      5360   175.616       -68538.3        82.287817     -36.437996      0.074455746   -36.363541    
      5370   175.616       -69021.946      130.93636     -36.482024      0.11847397    -36.36355     
      5380   175.616       -70392.019      239.76411     -36.580585      0.21694361    -36.363642    
      5390   175.616       -70618.275      253.31563     -36.592945      0.22920531    -36.363739    
      5400   175.616       -68654.459      73.185309     -36.429728      0.066219606   -36.363508    
      5410   175.616       -68234.339      36.5015       -36.396448      0.033027324   -36.363421    
      5420   175.616       -70618.392      251.12001     -36.590945      0.22721866    -36.363726    
      5430   175.616       -71050.931      295.21641     -36.630854      0.26711801    -36.363736    
      5440   175.616       -68784.009      114.22883     -36.466883      0.10335664    -36.363526    
      5450   175.616       -67648.115      20.098846     -36.381621      0.018185858   -36.363435    
      5460   175.616       -69424.231      153.23088     -36.502236      0.13864652    -36.363589    
      5470   175.616       -70951.558      283.52724     -36.62029       0.2565414     -36.363748    
      5480   175.616       -69921.452      200.28209     -36.544815      0.18121944    -36.363596    
      5490   175.616       -69000.674      103.6538      -36.45732       0.093788137   -36.363532    
      5500   175.616       -68936.617      104.04772     -36.457727      0.094144563   -36.363583    
      5510   175.616       -69204.956      143.16232     -36.493089      0.12953627    -36.363553    
      5520   175.616       -70265.459      229.91208     -36.571665      0.20802928    -36.363636    
      5530   175.616       -70445.894      240.26157     -36.581104      0.21739372    -36.36371     
      5540   175.616       -68809.274      91.166282     -36.446028      0.082489168   -36.363539    
      5550   175.616       -68225.743      44.704205     -36.403883      0.040449304   -36.363434    
      5560   175.616       -70310.066      233.73707     -36.575173      0.21149022    -36.363682    
      5570   175.616       -71189.044      304.43418     -36.639219      0.27545844    -36.363761    
      5580   175.616       -68992.484      123.23032     -36.475047      0.11150139    -36.363545    
      5590   175.616       -67505.668      4.0166138     -36.367047      0.0036343166  -36.363412    
      5600   175.616       -69301.689      143.10411     -36.493073      0.12948361    -36.363589    
      5610   175.616       -70987.25       287.21512     -36.623614      0.25987827    -36.363736    
      5620   175.616       -70077.107      216.10436     -36.559174      0.19553576    -36.363638    
      5630   175.616       -68687.024      82.69749      -36.438319      0.074826427   -36.363493    
      5640   175.616       -68887.167      101.27766     -36.455199      0.091638156   -36.363561    
      5650   175.616       -69776.982      188.23465     -36.533951      0.17031867    -36.363632    
      5660   175.616       -70141.333      221.03714     -36.563621      0.19999905    -36.363622    
      5670   175.616       -69889.059      197.23142     -36.542091      0.17845913    -36.363632    
      5680   175.616       -69087.431      110.79851     -36.463847      0.10025282    -36.363594    
      5690   175.616       -68461.488      56.582726     -36.414646      0.051197239   -36.363448    
      5700   175.616       -70100.763      211.75053     -36.555233      0.19159633    -36.363637    
      5710   175.616       -71288.592      310.53511     -36.644763      0.2809787     -36.363784    
      5720   175.616       -69170.811      138.33008     -36.488721      0.12516396    -36.363557    
      5730   175.616       -67410.42       3.6439995     -36.366713      0.0032971674  -36.363416    
      5740   175.616       -68979.925      126.6864      -36.478174      0.11462852    -36.363546    
      5750   175.616       -71207.373      306.07189     -36.640705      0.27694027    -36.363765    
      5760   175.616       -70356.684      230.55097     -36.572283      0.20860736    -36.363676    
      5770   175.616       -68371.296      49.281897     -36.408021      0.044591296   -36.36343     
      5780   175.616       -68925.771      98.389698     -36.452593      0.089025067   -36.363568    
      5790   175.616       -70050.185      209.96856     -36.553655      0.18998396    -36.363671    
      5800   175.616       -70043.704      212.70246     -36.556058      0.19245765    -36.3636      
      5810   175.616       -69665.03       180.45811     -36.526902      0.16328229    -36.36362     
      5820   175.616       -68998.433      111.88331     -36.464825      0.10123437    -36.36359     
      5830   175.616       -68799.71       88.875217     -36.443901      0.080416164   -36.363485    
      5840   175.616       -70252.292      226.02696     -36.568183      0.20451394    -36.363669    
      5850   175.616       -70830.705      276.73546     -36.614104      0.25039606    -36.363708    
      5860   175.616       -69190          142.43298     -36.492457      0.12887635    -36.363581    
      5870   175.616       -67453.392      10.917422     -36.37332       0.0098783124  -36.363442    
      5880   175.616       -68396.752      87.564967     -36.442734      0.079230622   -36.363503    
      5890   175.616       -70782.213      276.09732     -36.613522      0.24981866    -36.363703    
      5900   175.616       -70852.481      276.09485     -36.613575      0.24981642    -36.363759    
      5910   175.616       -68470.672      62.616278     -36.420109      0.056656524   -36.363453    
      5920   175.616       -68636.577      73.017875     -36.429571      0.066068108   -36.363503    
      5930   175.616       -70556.339      247.91628     -36.588069      0.22431986    -36.363749    
      5940   175.616       -70253.107      230.02169     -36.571752      0.20812846    -36.363623    
      5950   175.616       -69097.246      139.59493     -36.489858      0.12630843    -36.363549    
      5960   175.616       -68724.758      97.835292     -36.452097      0.088523428   -36.363574    
      5970   175.616       -68859.312      96.498021     -36.450841      0.087313437   -36.363528    
      5980   175.616       -69871.479      191.42847     -36.536796      0.1732085     -36.363587    
      5990   175.616       -70937.561      282.60868     -36.61945       0.25571027    -36.363739    
      6000   175.616       -69684.45       174.73048     -36.521708      0.15809981    -36.363608    
      6010   175.616       -67877.421      37.17275      -36.397103      0.033634685   -36.363468    
      6020   175.616       -68480.278      88.321489     -36.443412      0.079915139   -36.363497    
      6030   175.616       -70806.652      272.22917     -36.610021      0.24631867    -36.363702    
      6040   175.616       -70925.325      279.13811     -36.616338      0.25257003    -36.363768    
      6050   175.616       -68455.43       58.543788     -36.416422      0.052971649   -36.36345     
      6060   175.616       -68400.308      48.118961     -36.407009      0.043539047   -36.36347     
      6070   175.616       -70440.543      236.23641     -36.57747       0.21375166    -36.363718    
      6080   175.616       -70627.069      262.18528     -36.600909      0.23723075    -36.363679    
      6090   175.616       -69137.524      142.00215     -36.492043      0.12848653    -36.363557    
      6100   175.616       -68336.177      68.769103     -36.425728      0.06222373    -36.363504    
      6110   175.616       -69221.854      129.35626     -36.480617      0.11704426    -36.363572    
      6120   175.616       -70209.158      223.85224     -36.566205      0.20254621    -36.363659    
      6130   175.616       -70259.621      231.58396     -36.573174      0.20954203    -36.363632    
      6140   175.616       -69683.992      166.22799     -36.514032      0.15040657    -36.363626    
      6150   175.616       -68354.914      64.042129     -36.421459      0.057946664   -36.363513    
      6160   175.616       -68495.505      86.262157     -36.441538      0.078051812   -36.363486    
      6170   175.616       -70596.539      255.44117     -36.594809      0.23112854    -36.36368     
      6180   175.616       -70973.295      284.38075     -36.62108       0.25731368    -36.363766    
      6190   175.616       -68593.712      75.970447     -36.432237      0.068739657   -36.363497    
      6200   175.616       -68009.296      25.217031     -36.386233      0.0228169     -36.363416    
      6210   175.616       -70434.775      239.06216     -36.580026      0.21630847    -36.363718    
      6220   175.616       -71070.732      294.30548     -36.630032      0.26629378    -36.363738    
      6230   175.616       -69009.966      127.73202     -36.479105      0.11557462    -36.36353     
      6240   175.616       -68030.091      42.751392     -36.402151      0.038682358   -36.363468    
      6250   175.616       -69353.645      138.5939      -36.48901       0.12540267    -36.363607    
      6260   175.616       -70292.999      228.35349     -36.570263      0.20661904    -36.363644    
      6270   175.616       -70256.012      231.8651      -36.573447      0.20979642    -36.363651    
      6280   175.616       -69491.077      152.31805     -36.501416      0.13782057    -36.363595    
      6290   175.616       -68501.756      77.047411     -36.433232      0.069714116   -36.363518    
      6300   175.616       -68843.29       116.40551     -36.468865      0.10532616    -36.363539    
      6310   175.616       -70276.671      233.73213     -36.575127      0.21148574    -36.363642    
      6320   175.616       -70678.03       261.2353      -36.600096      0.23637119    -36.363725    
      6330   175.616       -68983.335      100.48985     -36.454483      0.090925325   -36.363558    
      6340   175.616       -68056.922      20.721852     -36.382146      0.018749568   -36.363396    
      6350   175.616       -70296.214      223.79224     -36.566184      0.20249192    -36.363692    
      6360   175.616       -71254.233      308.73688     -36.643119      0.27935162    -36.363767    
      6370   175.616       -69096.888      136.08935     -36.486676      0.1231365     -36.363539    
      6380   175.616       -67697.093      25.069224     -36.386135      0.022683161   -36.363452    
      6390   175.616       -69079.111      127.48283     -36.478907      0.11534914    -36.363557    
      6400   175.616       -70868.301      275.3766      -36.612898      0.24916653    -36.363731    
      6410   175.616       -70298.627      229.0464      -36.570892      0.207246      -36.363646    
      6420   175.616       -68976.231      105.59489     -36.459054      0.095544477   -36.36351     
      6430   175.616       -68761.688      93.942809     -36.448573      0.085001428   -36.363571    
      6440   175.616       -69003.803      130.79158     -36.481907      0.11834297    -36.363564    
      6450   175.616       -69882.758      201.91496     -36.546283      0.1826969     -36.363586    
      6460   175.616       -70609.485      255.6203      -36.59501       0.23129062    -36.36372     
      6470   175.616       -69276.142      130.50911     -36.481704      0.11808739    -36.363616    
      6480   175.616       -68119.055      29.707325     -36.390271      0.026879812   -36.363391    
      6490   175.616       -70258.701      223.28124     -36.565728      0.20202956    -36.363698    
      6500   175.616       -71184.97       307.04702     -36.641574      0.27782259    -36.363751    
      6510   175.616       -69086.376      141.18718     -36.491304      0.12774913    -36.363554    
      6520   175.616       -67359.514      6.3787935     -36.369205      0.0057716664  -36.363433    
      6530   175.616       -68489.152      91.100768     -36.445959      0.082429889   -36.36353     
      6540   175.616       -70539.223      254.18596     -36.593675      0.2299928     -36.363682    
      6550   175.616       -70662.302      263.13497     -36.601801      0.23809005    -36.363711    
      6560   175.616       -69053.691      113.96935     -36.466641      0.10312187    -36.363519    
      6570   175.616       -68766.829      87.601709     -36.442798      0.079263868   -36.363534    
      6580   175.616       -69642.435      176.03398     -36.52293       0.15927924    -36.363651    
      6590   175.616       -69962.805      205.87774     -36.549875      0.18628251    -36.363593    
      6600   175.616       -70024.829      211.30682     -36.554837      0.19119485    -36.363642    
      6610   175.616       -69279.239      135.68269     -36.486393      0.12276855    -36.363624    
      6620   175.616       -68296.819      42.530676     -36.401923      0.038482649   -36.36344     
      6630   175.616       -69684.589      170.76486     -36.518098      0.15451163    -36.363586    
      6640   175.616       -71306.703      314.26938     -36.648141      0.28435754    -36.363783    
      6650   175.616       -69746.013      187.87129     -36.533603      0.16998989    -36.363613    
      6660   175.616       -67549.755      15.294161     -36.37727       0.013838478   -36.363431    
      6670   175.616       -68392.488      78.471708     -36.434491      0.071002851   -36.363489    
      6680   175.616       -70947.178      281.76741     -36.618687      0.25494907    -36.363738    
      6690   175.616       -70748.643      268.22655     -36.606425      0.24269702    -36.363728    
      6700   175.616       -68635.048      77.155442     -36.433266      0.069811866   -36.363454    
      6710   175.616       -68767.517      79.451747     -36.435433      0.07188961    -36.363544    
      6720   175.616       -69799.294      185.52164     -36.53151       0.16786388    -36.363646    
      6730   175.616       -70141.433      222.46294     -36.564912      0.20128914    -36.363623    
      6740   175.616       -69871.998      198.22962     -36.542988      0.17936233    -36.363626    
      6750   175.616       -69080.133      122.44656     -36.474376      0.11079222    -36.363584    
      6760   175.616       -68647.247      77.39878      -36.433533      0.070032043   -36.363501    
      6770   175.616       -69594.608      173.63121     -36.520695      0.15710517    -36.36359     
      6780   175.616       -70853.884      280.96846     -36.617941      0.25422616    -36.363715    
      6790   175.616       -70019.509      200.84097     -36.545385      0.18172513    -36.36366     
      6800   175.616       -67807.191      26.020031     -36.386988      0.023543471   -36.363445    
      6810   175.616       -68259.439      65.170795     -36.422441      0.058967905   -36.363473    
      6820   175.616       -70822.299      272.0023      -36.609834      0.2461134     -36.363721    
      6830   175.616       -70927.768      284.65393     -36.621307      0.25756086    -36.363746    
      6840   175.616       -68594.241      80.681213     -36.436484      0.073002057   -36.363482    
      6850   175.616       -68282.471      46.34709      -36.4054        0.041935821   -36.363464    
      6860   175.616       -70143.723      212.82787     -36.556264      0.19257113    -36.363693    
      6870   175.616       -70593.297      255.60547     -36.594957      0.2312772     -36.36368     
      6880   175.616       -69407.572      161.32862     -36.509534      0.14597353    -36.363561    
      6890   175.616       -68820.55       101.92794     -36.455784      0.092226541   -36.363558    
      6900   175.616       -69035.919      104.53242     -36.45815       0.094583133   -36.363567    
      6910   175.616       -69604.25       168.68358     -36.516184      0.15262845    -36.363555    
      6920   175.616       -70771.586      272.61325     -36.610387      0.2466662     -36.363721    
      6930   175.616       -70024.809      201.52076     -36.545993      0.18234022    -36.363653    
      6940   175.616       -67975.148      42.333851     -36.401765      0.038304558   -36.36346     
      6950   175.616       -68248.584      71.061247     -36.427783      0.064297709   -36.363485    
      6960   175.616       -70515.77       253.25971     -36.592832      0.22915471    -36.363677    
      6970   175.616       -71049.576      291.81106     -36.627805      0.26403678    -36.363768    
      6980   175.616       -68817.436      88.472396     -36.443556      0.080051683   -36.363504    
      6990   175.616       -68148.298      27.423453     -36.388237      0.024813317   -36.363424    
      7000   175.616       -70222.304      216.86169     -36.559929      0.19622101    -36.363708    
      7010   175.616       -70740.858      268.35389     -36.606508      0.24281224    -36.363696    
      7020   175.616       -69324.317      154.92455     -36.503733      0.14017899    -36.363554    
      7030   175.616       -68481.867      82.748213     -36.438413      0.074872322   -36.363541    
      7040   175.616       -68984.186      110.22681     -36.463275      0.09973553    -36.363539    
      7050   175.616       -70228.887      220.18379     -36.562886      0.19922692    -36.363659    
      7060   175.616       -70527.527      251.0382      -36.590812      0.22714464    -36.363667    
      7070   175.616       -69587.528      165.91274     -36.513715      0.15012133    -36.363594    
      7080   175.616       -68263.22       66.318732     -36.423532      0.060006582   -36.363526    
      7090   175.616       -68088.328      63.783223     -36.421197      0.057712401   -36.363485    
      7100   175.616       -69890.31       205.74196     -36.54976       0.18615965    -36.3636      
      7110   175.616       -71195.048      304.89666     -36.639658      0.27587691    -36.363781    
      7120   175.616       -69314.951      135.44989     -36.486163      0.12255791    -36.363605    
      7130   175.616       -67863.238      7.0941136     -36.369776      0.006418903   -36.363357    
      7140   175.616       -70284.792      221.20181     -36.56388       0.20014804    -36.363732    
      7150   175.616       -71064.463      295.83996     -36.631415      0.26768221    -36.363733    
      7160   175.616       -69132.998      145.89366     -36.495548      0.13200765    -36.36354     
      7170   175.616       -67907.329      47.093298     -36.406096      0.042611006   -36.363485    
      7180   175.616       -68679.201      96.568872     -36.450933      0.087377545   -36.363556    
      7190   175.616       -69953.555      199.77389     -36.544369      0.18075961    -36.363609    
      7200   175.616       -70611.498      258.59948     -36.597677      0.23398625    -36.363691    
      7210   175.616       -69830.648      182.57809     -36.528814      0.16520049    -36.363613    
      7220   175.616       -68640.139      86.330256     -36.441642      0.07811343    -36.363529    
      7230   175.616       -68615.791      97.384815     -36.451657      0.088115827   -36.363541    
      7240   175.616       -69874.949      198.54521     -36.543238      0.17964787    -36.363591    
      7250   175.616       -70879.485      278.94492     -36.616135      0.25239522    -36.36374     
      7260   175.616       -69444.639      146.65908     -36.496318      0.13270022    -36.363618    
      7270   175.616       -67928.051      8.5450005     -36.371116      0.007731696   -36.363385    
      7280   175.616       -69727.417      170.62058     -36.518005      0.15438108    -36.363624    
      7290   175.616       -71243.326      311.12986     -36.645288      0.28151684    -36.363771    
      7300   175.616       -69691.287      187.75574     -36.533487      0.16988534    -36.363602    
      7310   175.616       -67791.042      33.759095     -36.393995      0.030545939   -36.36345     
      7320   175.616       -68589.518      87.868349     -36.443018      0.079505128   -36.363513    
      7330   175.616       -70596.545      250.88646     -36.590721      0.22700734    -36.363714    
      7340   175.616       -70409.908      245.1441      -36.585478      0.22181153    -36.363666    
      7350   175.616       -69282.507      134.69551     -36.48541       0.12187533    -36.363535    
      7360   175.616       -68967.921      101.27564     -36.455219      0.091636323   -36.363583    
      7370   175.616       -68868.357      112.62956     -36.465451      0.10190959    -36.363541    
      7380   175.616       -69845.989      197.15389     -36.541985      0.17838898    -36.363596    
      7390   175.616       -70719.118      264.7324      -36.603249      0.23953544    -36.363713    
      7400   175.616       -69504.575      154.69512     -36.503598      0.13997139    -36.363627    
      7410   175.616       -67988.909      22.438297     -36.383717      0.020302643   -36.363414    
      7420   175.616       -69380.629      153.03263     -36.502048      0.13846714    -36.363581    
      7430   175.616       -71290.004      314.71622     -36.648539      0.28476185    -36.363778    
      7440   175.616       -70015.226      205.71584     -36.549778      0.18613602    -36.363642    
      7450   175.616       -67679.724      18.913        -36.380535      0.01711288    -36.363422    
      7460   175.616       -68459.849      75.799421     -36.432094      0.068584909   -36.363509    
      7470   175.616       -70659.962      255.13572     -36.594566      0.23085217    -36.363714    
      7480   175.616       -70560.339      258.37357     -36.597465      0.23378184    -36.363683    
      7490   175.616       -69089.519      124.54747     -36.47623       0.11269317    -36.363537    
      7500   175.616       -68650.979      79.029804     -36.435029      0.071507827   -36.363521    
      7510   175.616       -69374.029      152.13156     -36.501259      0.13765184    -36.363607    
      7520   175.616       -70067.375      215.01793     -36.55818       0.19455274    -36.363627    
      7530   175.616       -70094.021      218.27865     -36.561134      0.19750311    -36.363631    
      7540   175.616       -69468.62       151.04948     -36.500304      0.13667274    -36.363631    
      7550   175.616       -68460.834      52.639207     -36.411108      0.04762906    -36.363479    
      7560   175.616       -69274.014      137.34863     -36.487805      0.12427593    -36.363529    
      7570   175.616       -71248.083      309.75644     -36.644063      0.28027414    -36.363789    
      7580   175.616       -70143.026      216.32094     -36.559381      0.19573173    -36.36365     
      7590   175.616       -67712.045      26.199662     -36.387142      0.023706005   -36.363436    
      7600   175.616       -68132.548      60.233916     -36.41798       0.054500913   -36.363479    
      7610   175.616       -70592.854      256.59822     -36.595872      0.23217546    -36.363696    
      7620   175.616       -71002.029      288.34024     -36.624649      0.26089631    -36.363753    
      7630   175.616       -68937.309      102.15572     -36.455923      0.092432641   -36.363491    
      7640   175.616       -68491.425      59.28253      -36.417133      0.053640079   -36.363493    
      7650   175.616       -69651.134      174.19131     -36.52127       0.15761196    -36.363658    
      7660   175.616       -70021.46       212.61715     -36.555995      0.19238046    -36.363615    
      7670   175.616       -69880.845      199.06011     -36.543718      0.18011377    -36.363604    
      7680   175.616       -69411.725      152.05343     -36.50123       0.13758114    -36.363649    
      7690   175.616       -68591.742      70.372454     -36.42715       0.063674475   -36.363476    
      7700   175.616       -69622.372      167.75352     -36.515385      0.15178691    -36.363598    
      7710   175.616       -70961.191      288.19115     -36.624492      0.26076141    -36.36373     
[...]
      8190   175.616       -69761.147      173.82398     -36.520932      0.15727959    -36.363653    
      8200   175.616       -68011.72       14.226209     -36.376276      0.012872173   -36.363403    
      8210   175.616       -69294.852      135.00186     -36.485717      0.12215252    -36.363564    
      8220   175.616       -71287.299      312.24361     -36.646321      0.28252458    -36.363796    
      8230   175.616       -70018.065      209.25955     -36.552959      0.18934244    -36.363617    
      8240   175.616       -67984.102      48.737176     -36.407567      0.044098421   -36.363469    
      8250   175.616       -68361.588      72.422757     -36.429035      0.065529633   -36.363505    
      8260   175.616       -70303.942      227.41326     -36.569437      0.20576829    -36.363668    
      8270   175.616       -70772.707      270.38321     -36.608362      0.24464841    -36.363714    
      8280   175.616       -69430.171      148.88627     -36.498255      0.13471543    -36.36354     
      8290   175.616       -68716.606      87.883364     -36.443064      0.079518714   -36.363545    
      8300   175.616       -68709.041      106.04208     -36.459516      0.095949106   -36.363567    
      8310   175.616       -69369.296      164.29394     -36.512213      0.14865661    -36.363557    
      8320   175.616       -70540.487      252.90145     -36.5925        0.22883055    -36.363669    
      8330   175.616       -70124.561      207.49326     -36.551474      0.18774426    -36.363729    
      8340   175.616       -68109.387      27.703753     -36.388466      0.025066938   -36.363399    
      8350   175.616       -69282.399      136.04622     -36.486675      0.12309748    -36.363578    
      8360   175.616       -71286.314      313.6002      -36.647538      0.28375205    -36.363786    
      8370   175.616       -70001.94       215.17704     -36.558322      0.19469671    -36.363625    
      8380   175.616       -67681.786      35.889226     -36.395931      0.032473326   -36.363457    
      8390   175.616       -67724.932      36.273597     -36.396298      0.032821113   -36.363477    
      8400   175.616       -69761.316      192.35002     -36.537663      0.17404234    -36.363621    
      8410   175.616       -70891.703      283.52756     -36.62026       0.2565417     -36.363718    
      8420   175.616       -69792.085      182.87189     -36.529087      0.16546633    -36.363621    
      8430   175.616       -68624.154      74.348081     -36.430747      0.067271706   -36.363476    
      8440   175.616       -69278.077      141.50823     -36.491676      0.12803962    -36.363636    
      8450   175.616       -69813.781      193.51213     -36.538696      0.17509385    -36.363602    
      8460   175.616       -70076.695      217.01273     -36.559974      0.19635768    -36.363617    
      8470   175.616       -69745.593      183.73071     -36.529913      0.1662434     -36.36367     
      8480   175.616       -68458.249      58.395014     -36.416329      0.052837036   -36.363492    
      8490   175.616       -68837.595      93.166471     -36.44778       0.08429898    -36.363481    
      8500   175.616       -70978.143      285.79815     -36.622348      0.25859617    -36.363752    
      8510   175.616       -70643.614      262.43295     -36.601156      0.23745484    -36.363701    
      8520   175.616       -68195.826      66.622549     -36.423766      0.060281483   -36.363484    
      8530   175.616       -67684.841      24.023111     -36.385172      0.021736616   -36.363435    
      8540   175.616       -70031.204      207.0247      -36.55096       0.1873203     -36.363639    
      8550   175.616       -71214.19       308.06658     -36.642531      0.27874511    -36.363786    
      8560   175.616       -69355.245      146.78752     -36.496356      0.13281643    -36.363539    
      8570   175.616       -68523.876      58.690248     -36.41659       0.05310417    -36.363486    
      8580   175.616       -69381.619      143.4983      -36.493465      0.12984028    -36.363624    
      8590   175.616       -69960.058      208.36394     -36.552151      0.18853207    -36.363619    
      8600   175.616       -70122.601      220.25604     -36.562926      0.19929229    -36.363634    
      8610   175.616       -69518.253      163.72072     -36.511758      0.14813795    -36.36362     
      8620   175.616       -68635.207      77.950654     -36.43405       0.07053139    -36.363518    
      8630   175.616       -68943.091      113.07029     -36.465833      0.10230837    -36.363525    
      8640   175.616       -70488.281      253.87797     -36.593392      0.22971412    -36.363678    
      8650   175.616       -70758.1        264.48016     -36.603031      0.23930721    -36.363724    
      8660   175.616       -68554.564      83.820403     -36.439361      0.075842462   -36.363518    
      8670   175.616       -67610.696      13.640581     -36.375757      0.012342285   -36.363415    
      8680   175.616       -69935.739      198.5142      -36.543256      0.17961982    -36.363636    
      8690   175.616       -71321.428      316.18477     -36.649871      0.28609063    -36.36378     
      8700   175.616       -69458.641      160.46334     -36.508775      0.1451906     -36.363584    
      8710   175.616       -68007.988      25.978323     -36.386927      0.023505732   -36.363422    
      8720   175.616       -69365.876      144.04322     -36.493945      0.13033333    -36.363612    
      8730   175.616       -70639.67       258.18777     -36.59732       0.23361372    -36.363706    
      8740   175.616       -69944.466      205.46506     -36.549516      0.1859091     -36.363607    
      8750   175.616       -68946.496      120.45123     -36.472534      0.1089868     -36.363547    
      8760   175.616       -68943.83       99.561866     -36.453666      0.090085669   -36.363581    
      8770   175.616       -69218.472      127.44549     -36.478845      0.11531536    -36.363529    
      8780   175.616       -70380.235      242.32629     -36.582924      0.21926192    -36.363662    
      8790   175.616       -70659.87       257.67838     -36.596875      0.23315281    -36.363722    
      8800   175.616       -68634.321      92.285224     -36.447018      0.08350161    -36.363516    
      8810   175.616       -67752.522      30.095537     -36.390676      0.027231074   -36.363445    
      8820   175.616       -69621.507      182.28447     -36.528534      0.16493482    -36.363599    
      8830   175.616       -71208.098      310.00646     -36.644268      0.28050036    -36.363767    
      8840   175.616       -69797.202      177.92951     -36.524625      0.16099436    -36.36363     
      8850   175.616       -67989.796      13.369881     -36.375489      0.012097349   -36.363392    
      8860   175.616       -69346.537      138.43259     -36.488863      0.12525672    -36.363607    
      8870   175.616       -70766.102      271.01488     -36.608954      0.24521996    -36.363734    
      8880   175.616       -69905.135      201.44193     -36.54586       0.18226889    -36.363591    
      8890   175.616       -68776.777      109.74783     -36.462857      0.099302138   -36.363555    
      8900   175.616       -68663.421      87.914831     -36.443084      0.079547186   -36.363537    
      8910   175.616       -69655.441      168.1506      -36.515736      0.1521462     -36.36359     
      8920   175.616       -70635.919      259.95258     -36.598908      0.23521056    -36.363698    
      8930   175.616       -70092.27       211.34424     -36.55485       0.19122871    -36.363622    
      8940   175.616       -68666.303      98.085595     -36.452301      0.088749908   -36.363551    
      8950   175.616       -67767.09       39.914471     -36.399597      0.036115452   -36.363481    
      8960   175.616       -68941.154      134.67603     -36.48539       0.12185771    -36.363532    
      8970   175.616       -70980.883      291.17921     -36.627184      0.26346506    -36.363719    
      8980   175.616       -70453.755      236.53399     -36.577773      0.21402092    -36.363752    
      8990   175.616       -67920.741      13.099449     -36.375219      0.011852657   -36.363366    
      9000   175.616       -69180.466      123.48269     -36.475317      0.11172973    -36.363587    
      9010   175.616       -71184.178      302.60803     -36.637595      0.27380611    -36.363789    
      9020   175.616       -69946.15       210.27646     -36.553862      0.19026256    -36.3636      
      9030   175.616       -68158.132      72.504078     -36.429096      0.065603213   -36.363493    
      9040   175.616       -68191.366      65.194871     -36.422519      0.058989689   -36.363529    
      9050   175.616       -69366.721      150.21975     -36.499497      0.13592198    -36.363575    
      9060   175.616       -70475.842      246.43457     -36.586639      0.22297918    -36.36366     
      9070   175.616       -70390.676      235.05045     -36.57636       0.21267859    -36.363681    
      9080   175.616       -69022.432      115.8368      -36.468349      0.10481157    -36.363538    
      9090   175.616       -68404.309      77.083537     -36.433284      0.069746804   -36.363537    
      9100   175.616       -69217.533      146.44505     -36.496055      0.13250655    -36.363549    
      9110   175.616       -70707.354      266.53411     -36.604856      0.24116567    -36.36369     
      9120   175.616       -70308.184      227.52099     -36.569586      0.20586577    -36.363721    
      9130   175.616       -68191.464      33.514867     -36.393755      0.030324956   -36.36343     
      9140   175.616       -68731.811      80.056652     -36.435934      0.072436942   -36.363497    
      9150   175.616       -70916.011      281.08459     -36.618087      0.25433125    -36.363756    
      9160   175.616       -70537.953      257.76364     -36.59691       0.23322996    -36.363681    
      9170   175.616       -68414.309      85.33772      -36.440717      0.077215362   -36.363501    
      9180   175.616       -67979.308      42.509788     -36.401924      0.03846375    -36.363461    
      9190   175.616       -69842.069      187.02135     -36.532857      0.16922084    -36.363636    
      9200   175.616       -70684.395      267.28804     -36.605564      0.24184783    -36.363716    
      9210   175.616       -69701.333      179.9911      -36.526427      0.16285973    -36.363567    
      9220   175.616       -69144.8        114.58613     -36.467258      0.10367994    -36.363578    
      9230   175.616       -68731.909      95.06654      -36.449569      0.086018203   -36.36355     
      9240   175.616       -69243.133      149.56648     -36.498878      0.13533089    -36.363547    
      9250   175.616       -70632.905      259.15064     -36.598171      0.23448494    -36.363686    
      9260   175.616       -70281.14       224.41564     -36.566757      0.20305599    -36.363701    
      9270   175.616       -68297.173      49.827093     -36.408554      0.045084601   -36.363469    
      9280   175.616       -68404.954      66.787671     -36.423898      0.060430888   -36.363467    
      9290   175.616       -70777.386      273.26995     -36.610991      0.2472604     -36.363731    
      9300   175.616       -70963.081      283.75355     -36.620484      0.25674618    -36.363738    
      9310   175.616       -68422.14       78.711682     -36.434708      0.071219984   -36.363488    
      9320   175.616       -67754.071      22.449114     -36.383749      0.02031243    -36.363437    
      9330   175.616       -69941.979      192.84456     -36.538145      0.17448981    -36.363655    
      9340   175.616       -70854.779      279.46881     -36.616584      0.25286925    -36.363715    
      9350   175.616       -69648.316      180.45259     -36.52687       0.16327729    -36.363593    
      9360   175.616       -68673.639      82.903843     -36.438524      0.075013139   -36.363511    
      9370   175.616       -68952.751      112.59567     -36.465446      0.10187892    -36.363568    
      9380   175.616       -69797.782      191.97993     -36.537329      0.17370747    -36.363621    
      9390   175.616       -70183.22       227.6011      -36.56957       0.20593826    -36.363631    
      9400   175.616       -69827.494      191.19295     -36.536641      0.1729954     -36.363645    
      9410   175.616       -68798.964      83.094044     -36.438735      0.075185238   -36.36355     
      9420   175.616       -68579.951      71.006184     -36.427697      0.064247888   -36.363449    
      9430   175.616       -70636.178      259.63763     -36.598643      0.23492559    -36.363717    
      9440   175.616       -70980.306      286.28801     -36.622785      0.25903941    -36.363745    
      9450   175.616       -68520.567      88.632066     -36.443693      0.080196156   -36.363497    
      9460   175.616       -67587.473      17.577021     -36.379342      0.015904058   -36.363437    
      9470   175.616       -69587.984      176.13722     -36.522974      0.15937266    -36.363601    
      9480   175.616       -71207.373      308.17226     -36.642612      0.27884074    -36.363772    
      9490   175.616       -69843.229      184.6756      -36.530703      0.16709836    -36.363605    
      9500   175.616       -68368.739      49.363107     -36.40811       0.044664776   -36.363445    
      9510   175.616       -69116.278      124.67984     -36.476422      0.11281294    -36.36361     
      9520   175.616       -69851.569      200.64631     -36.545186      0.181549      -36.363637    
      9530   175.616       -69934.58       204.95549     -36.549034      0.18544803    -36.363586    
      9540   175.616       -69819.757      190.60555     -36.53613       0.17246391    -36.363666    
      9550   175.616       -68827.005      93.72976      -36.448359      0.084808656   -36.36355     
      9560   175.616       -68871.821      98.882594     -36.452963      0.08947105    -36.363492    
      9570   175.616       -70689.218      263.55473     -36.602193      0.23846985    -36.363723    
      9580   175.616       -70634.511      262.61841     -36.60131       0.23762266    -36.363687    
      9590   175.616       -68492.853      96.382532     -36.450738      0.087208941   -36.363529    
      9600   175.616       -67227.764      3.2505803     -36.366378      0.0029411934  -36.363437    
      9610   175.616       -68767.244      122.16619     -36.474076      0.11053854    -36.363538    
      9620   175.616       -70997.662      294.45349     -36.630154      0.2664277     -36.363726    
      9630   175.616       -70507.586      245.26395     -36.585649      0.22191998    -36.363729    
      9640   175.616       -68245.873      42.726954     -36.402068      0.038660246   -36.363408    
      9650   175.616       -69099.075      115.77334     -36.468345      0.10475415    -36.363591    
      9660   175.616       -70554.472      250.31262     -36.590216      0.22648812    -36.363728    
      9670   175.616       -69907.759      204.6198      -36.548728      0.1851443     -36.363584    
      9680   175.616       -69064.026      140.38991     -36.490601      0.12702774    -36.363573    
      9690   175.616       -68703.724      95.831303     -36.450286      0.086710177   -36.363576    
      9700   175.616       -68795.294      92.22419      -36.446942      0.083446386   -36.363495    
      9710   175.616       -70211.974      220.09327     -36.562781      0.19914502    -36.363636    
      9720   175.616       -70941.882      283.95149     -36.620667      0.25692527    -36.363742    
      9730   175.616       -69200.487      140.31275     -36.490523      0.12695792    -36.363565    
      9740   175.616       -67724.822      27.57168      -36.388407      0.024947436   -36.363459    
      9750   175.616       -68899.752      120.37462     -36.472441      0.10891749    -36.363524    
      9760   175.616       -71109.792      298.40736     -36.633756      0.27000525    -36.363751    
      9770   175.616       -70437.886      240.0103      -36.580879      0.21716636    -36.363712    
      9780   175.616       -68193.522      34.913193     -36.395002      0.031590191   -36.363411    
      9790   175.616       -68859.52       89.126053     -36.444188      0.080643126   -36.363545    
      9800   175.616       -70449.042      243.92285     -36.584412      0.22070652    -36.363706    
      9810   175.616       -70299.835      238.88618     -36.579797      0.21614924    -36.363648    
      9820   175.616       -69065.517      134.92931     -36.485646      0.12208688    -36.363559    
      9830   175.616       -68518.46       79.250646     -36.435225      0.07170765    -36.363517    
      9840   175.616       -69279.313      136.50506     -36.487093      0.12351265    -36.36358     
      9850   175.616       -70084.909      219.88622     -36.562596      0.19895767    -36.363639    
      9860   175.616       -70366.964      237.57161     -36.578612      0.21495978    -36.363652    
      9870   175.616       -69565.43       156.50293     -36.505236      0.14160714    -36.363628    
      9880   175.616       -68003.457      41.076838     -36.400633      0.037167186   -36.363466    
      9890   175.616       -68810.978      112.64339     -36.465435      0.10192211    -36.363513    
      9900   175.616       -71062.088      292.75945     -36.628635      0.26489491    -36.36374     
      9910   175.616       -70577.563      251.88454     -36.591634      0.22791043    -36.363724    
      9920   175.616       -68074.619      35.145709     -36.395233      0.031800576   -36.363432    
      9930   175.616       -68344.332      57.98362      -36.415938      0.052464798   -36.363473    
      9940   175.616       -70766.085      267.52118     -36.605802      0.24205879    -36.363743    
      9950   175.616       -70781.596      270.34787     -36.608321      0.24461643    -36.363705    
      9960   175.616       -68672.032      102.09443     -36.455878      0.092377183   -36.3635      
      9970   175.616       -68292.044      61.049996     -36.418741      0.055239319   -36.363502    
      9980   175.616       -69627.223      159.62483     -36.508059      0.1444319     -36.363627    
      9990   175.616       -70210.79       226.13975     -36.568243      0.204616      -36.363627    
     10000   175.616       -70206.625      227.44339     -36.569455      0.20579556    -36.363659    
Loop time of 0.190754 on 1 procs for 10000 steps with 8 atoms

Performance: 4529.404 ns/day, 0.005 hours/ns, 52423.652 timesteps/s, 419.389 katom-step/s
94.8% CPU use with 1 MPI tasks x 1 OpenMP threads

MPI task timing breakdown:
Section |  min time  |  avg time  |  max time  |%varavg| %total
---------------------------------------------------------------
Pair    | 0.15812    | 0.15812    | 0.15812    |   0.0 | 82.89
Neigh   | 0.00039414 | 0.00039414 | 0.00039414 |   0.0 |  0.21
Comm    | 0.0043295  | 0.0043295  | 0.0043295  |   0.0 |  2.27
Output  | 0.022332   | 0.022332   | 0.022332   |   0.0 | 11.71
Modify  | 0.0025612  | 0.0025612  | 0.0025612  |   0.0 |  1.34
Other   |            | 0.003022   |            |       |  1.58

Nlocal:              8 ave           8 max           8 min
Histogram: 1 0 0 0 0 0 0 0 0 0
Nghost:             56 ave          56 max          56 min
Histogram: 1 0 0 0 0 0 0 0 0 0
Neighs:              0 ave           0 max           0 min
Histogram: 1 0 0 0 0 0 0 0 0 0
FullNghs:           32 ave          32 max          32 min
Histogram: 1 0 0 0 0 0 0 0 0 0

Total # of neighbors = 32
Ave neighs/atom = 4
Neighbor list builds = 81
Dangerous builds = 0
System init for write_data ...
WARNING: Dump traj includes no atom IDs and is not sorted by ID. This may complicate post-processing tasks or visualization (src/dump.cpp:219)
Total wall time: 0:00:00
