ITEM: TIMESTEP
0
ITEM: NUMBER OF ATOMS
8
ITEM: BOX BOUNDS xy xz yz pp pp pp
0.0000000000000000e+00 5.5999999999999996e+00 0.0000000000000000e+00
0.0000000000000000e+00 5.5999999999999996e+00 0.0000000000000000e+00
0.0000000000000000e+00 5.5999999999999996e+00 0.0000000000000000e+00
ITEM: ATOMS x y z
0.68125 0.68125 0.68125
3.40625 3.40625 0.68125
3.40625 0.68125 3.40625
0.68125 3.40625 3.40625
4.76875 2.04375 2.04375
2.04375 4.76875 2.04375
2.04375 2.04375 4.76875
4.76875 4.76875 4.76875
ITEM: TIMESTEP
10
ITEM: NUMBER OF ATOMS
8
ITEM: BOX BOUNDS xy xz yz pp pp pp
0.0000000000000000e+00 5.5999999999999996e+00 0.0000000000000000e+00
0.0000000000000000e+00 5.5999999999999996e+00 0.0000000000000000e+00
0.0000000000000000e+00 5.5999999999999996e+00 0.0000000000000000e+00
ITEM: ATOMS x y z
0.670764 0.670764 0.670764
3.40774 3.40774 0.665316
3.40774 0.665316 3.40774
0.665316 3.40774 3.40774
4.78468 2.04226 2.04226
2.04226 4.78468 2.04226
2.04226 2.04226 4.78468
4.77924 4.77924 4.77924
ITEM: TIMESTEP
20
ITEM: NUMBER OF ATOMS
8
ITEM: BOX BOUNDS xy xz yz pp pp pp
0.0000000000000000e+00 5.5999999999999996e+00 0.0000000000000000e+00
0.0000000000000000e+00 5.5999999999999996e+00 0.0000000000000000e+00
0.0000000000000000e+00 5.5999999999999996e+00 0.0000000000000000e+00
ITEM: ATOMS x y z
0.642243 0.642243 0.642243
3.4132 3.4132 0.627335
3.4132 0.627335 3.4132
0.627335 3.4132 3.4132
4.82266 2.0368 2.0368
2.0368 4.82266 2.0368
2.0368 2.0368 4.82266
4.80776 4.80776 4.80776
ITEM: TIMESTEP
30
ITEM: NUMBER OF ATOMS
8
ITEM: BOX BOUNDS xy xz yz pp pp pp
0.0000000000000000e+00 5.5999999999999996e+00 0.0000000000000000e+00
0.0000000000000000e+00 5.5999999999999996e+00 0.0000000000000000e+00
0.0000000000000000e+00 5.5999999999999996e+00 0.0000000000000000e+00
ITEM: ATOMS x y z
0.606665 0.606665 0.606665
3.42443 3.42443 0.589874
3.42443 0.589874 3.42443
0.589874 3.42443 3.42443
4.86013 2.02557 2.02557
2.02557 4.86013 2.02557
2.02557 2.02557 4.86013
4.84334 4.84334 4.84334
ITEM: TIMESTEP
40
ITEM: NUMBER OF ATOMS
8
ITEM: BOX BOUNDS xy xz yz pp pp pp
0.0000000000000000e+00 5.5999999999999996e+00 0.0000000000000000e+00
0.0000000000000000e+00 5.5999999999999996e+00 0.0000000000000000e+00
0.0000000000000000e+00 5.5999999999999996e+00 0.0000000000000000e+00
ITEM: ATOMS x y z
0.583637 0.583637 0.583637
3.44029 3.44029 0.572996
3.44029 0.572996 3.44029
0.572996 3.44029 3.44029
4.877 2.00971 2.00971
2.00971 4.877 2.00971
2.00971 2.00971 4.877
4.86636 4.86636 4.86636
ITEM: TIMESTEP
50
ITEM: NUMBER OF ATOMS
8
ITEM: BOX BOUNDS xy xz yz pp pp pp
0.0000000000000000e+00 5.5999999999999996e+00 0.0000000000000000e+00
0.0000000000000000e+00 5.5999999999999996e+00 0.0000000000000000e+00
0.0000000000000000e+00 5.5999999999999996e+00 0.0000000000000000e+00
ITEM: ATOMS x y z
0.588562 0.588562 0.588562
3.45402 3.45402 0.583461
3.45402 0.583461 3.45402
0.583461 3.45402 3.45402
4.86654 1.99598 1.99598
1.99598 4.86654 1.99598
1.99598 1.99598 4.86654
4.86144 4.86144 4.86144
ITEM: TIMESTEP
60
ITEM: NUMBER OF ATOMS
8
ITEM: BOX BOUNDS xy xz yz pp pp pp
0.0000000000000000e+00 5.5999999999999996e+00 0.0000000000000000e+00
0.0000000000000000e+00 5.5999999999999996e+00 0.0000000000000000e+00
0.0000000000000000e+00 5.5999999999999996e+00 0.0000000000000000e+00
ITEM: ATOMS x y z
0.615181 0.615181 0.615181
3.45645 3.45645 0.613804
3.45645 0.613804 3.45645
0.613804 3.45645 3.45645
4.8362 1.99355 1.99355
1.99355 4.8362 1.99355
1.99355 1.99355 4.8362
4.83482 4.83482 4.83482
ITEM: TIMESTEP
70
ITEM: NUMBER OF ATOMS
8
ITEM: BOX BOUNDS xy xz yz pp pp pp
0.0000000000000000e+00 5.5999999999999996e+00 0.0000000000000000e+00
0.0000000000000000e+00 5.5999999999999996e+00 0.0000000000000000e+00
0.0000000000000000e+00 5.5999999999999996e+00 0.0000000000000000e+00
ITEM: ATOMS x y z
0.643398 0.643398 0.643398
3.44264 3.44264 0.64722
3.44264 0.64722 3.44264
0.64722 3.44264 3.44264
4.80278 2.00736 2.00736
2.00736 4.80278 2.00736
2.00736 2.00736 4.80278
4.8066 4.8066 4.8066
ITEM: TIMESTEP
80
ITEM: NUMBER OF ATOMS
8
ITEM: BOX BOUNDS xy xz yz pp pp pp
0.0000000000000000e+00 5.5999999999999996e+00 0.0000000000000000e+00
0.0000000000000000e+00 5.5999999999999996e+00 0.0000000000000000e+00
0.0000000000000000e+00 5.5999999999999996e+00 0.0000000000000000e+00
ITEM: ATOMS x y z
0.659366 0.659366 0.659366
3.41647 3.41647 0.665761
3.41647 0.665761 3.41647
0.665761 3.41647 3.41647
4.78424 2.03353 2.03353
2.03353 4.78424 2.03353
2.03353 2.03353 4.78424
4.79063 4.79063 4.79063
ITEM: TIMESTEP
90
ITEM: NUMBER OF ATOMS
8
ITEM: BOX BOUNDS xy xz yz pp pp pp
0.0000000000000000e+00 5.5999999999999996e+00 0.0000000000000000e+00
0.0000000000000000e+00 5.5999999999999996e+00 0.0000000000000000e+00
0.0000000000000000e+00 5.5999999999999996e+00 0.0000000000000000e+00
ITEM: ATOMS x y z
0.659887 0.659887 0.659887
3.39008 3.39008 0.66097
3.39008 0.66097 3.39008
0.66097 3.39008 3.39008
4.78903 2.05992 2.05992
2.05992 4.78903 2.05992
2.05992 2.05992 4.78903
4.79011 4.79011 4.79011
ITEM: TIMESTEP
100
ITEM: NUMBER OF ATOMS
8
ITEM: BOX BOUNDS xy xz yz pp pp pp
0.0000000000000000e+00 5.5999999999999996e+00 0.0000000000000000e+00
0.0000000000000000e+00 5.5999999999999996e+00 0.0000000000000000e+00
0.0000000000000000e+00 5.5999999999999996e+00 0.0000000000000000e+00
ITEM: ATOMS x y z
0.648035 0.648035 0.648035
3.37948 3.37948 0.640512
3.37948 0.640512 3.37948
0.640512 3.37948 3.37948
4.80949 2.07052 2.07052
2.07052 4.80949 2.07052
2.07052 2.07052 4.80949
4.80197 4.80197 4.80197
ITEM: TIMESTEP
110
ITEM: NUMBER OF ATOMS
8
ITEM: BOX BOUNDS xy xz yz pp pp pp
0.0000000000000000e+00 5.5999999999999996e+00 0.0000000000000000e+00
0.0000000000000000e+00 5.5999999999999996e+00 0.0000000000000000e+00
0.0000000000000000e+00 5.5999999999999996e+00 0.0000000000000000e+00
ITEM: ATOMS x y z
0.630047 0.630047 0.630047
3.39456 3.39456 0.620182
3.39456 0.620182 3.39456
0.620182 3.39456 3.39456
4.82982 2.05544 2.05544
2.05544 4.82982 2.05544
2.05544 2.05544 4.82982
4.81995 4.81995 4.81995
ITEM: TIMESTEP
120
ITEM: NUMBER OF ATOMS
8
ITEM: BOX BOUNDS xy xz yz pp pp pp
0.0000000000000000e+00 5.5999999999999996e+00 0.0000000000000000e+00
0.0000000000000000e+00 5.5999999999999996e+00 0.0000000000000000e+00
0.0000000000000000e+00 5.5999999999999996e+00 0.0000000000000000e+00
ITEM: ATOMS x y z
0.61331 0.61331 0.61331
3.42904 3.42904 0.609035
3.42904 0.609035 3.42904
0.609035 3.42904 3.42904
4.84096 2.02096 2.02096
2.02096 4.84096 2.02096
2.02096 2.02096 4.84096
4.83669 4.83669 4.83669
ITEM: TIMESTEP
130
ITEM: NUMBER OF ATOMS
8
ITEM: BOX BOUNDS xy xz yz pp pp pp
0.0000000000000000e+00 5.5999999999999996e+00 0.0000000000000000e+00
0.0000000000000000e+00 5.5999999999999996e+00 0.0000000000000000e+00
0.0000000000000000e+00 5.5999999999999996e+00 0.0000000000000000e+00
ITEM: ATOMS x y z
0.603327 0.603327 0.603327
3.46346 3.46346 0.607022
3.46346 0.607022 3.46346
0.607022 3.46346 3.46346
4.84298 1.98654 1.98654
1.98654 4.84298 1.98654
1.98654 1.98654 4.84298
4.84667 4.84667 4.84667
ITEM: TIMESTEP
140
ITEM: NUMBER OF ATOMS
8
ITEM: BOX BOUNDS xy xz yz pp pp pp
0.0000000000000000e+00 5.5999999999999996e+00 0.0000000000000000e+00
0.0000000000000000e+00 5.5999999999999996e+00 0.0000000000000000e+00
0.0000000000000000e+00 5.5999999999999996e+00 0.0000000000000000e+00
ITEM: ATOMS x y z
0.601528 0.601528 0.601528
3.47936 3.47936 0.611583
3.47936 0.611583 3.47936
0.611583 3.47936 3.47936
4.83842 1.97064 1.97064
1.97064 4.83842 1.97064
1.97064 1.97064 4.83842
4.84847 4.84847 4.84847
ITEM: TIMESTEP
150
ITEM: NUMBER OF ATOMS
8
ITEM: BOX BOUNDS xy xz yz pp pp pp
0.0000000000000000e+00 5.5999999999999996e+00 0.0000000000000000e+00
0.0000000000000000e+00 5.5999999999999996e+00 0.0000000000000000e+00
0.0000000000000000e+00 5.5999999999999996e+00 0.0000000000000000e+00
ITEM: ATOMS x y z
0.606512 0.606512 0.606512
3.4689 3.4689 0.619749
3.4689 0.619749 3.4689
0.619749 3.4689 3.4689
4.83025 1.9811 1.9811
1.9811 4.83025 1.9811
1.9811 1.9811 4.83025
4.84349 4.84349 4.84349
ITEM: TIMESTEP
160
ITEM: NUMBER OF ATOMS
8
ITEM: BOX BOUNDS xy xz yz pp pp pp
0.0000000000000000e+00 5.5999999999999996e+00 0.0000000000000000e+00
0.0000000000000000e+00 5.5999999999999996e+00 0.0000000000000000e+00
0.0000000000000000e+00 5.5999999999999996e+00 0.0000000000000000e+00
ITEM: ATOMS x y z
0.616574 0.616574 0.616574
3.43663 3.43663 0.627295
3.43663 0.627295 3.43663
0.627295 3.43663 3.43663
4.8227 2.01337 2.01337
2.01337 4.8227 2.01337
2.01337 2.01337 4.8227
4.83343 4.83343 4.83343
ITEM: TIMESTEP
170
ITEM: NUMBER OF ATOMS
8
ITEM: BOX BOUNDS xy xz yz pp pp pp
0.0000000000000000e+00 5.5999999999999996e+00 0.0000000000000000e+00
0.0000000000000000e+00 5.5999999999999996e+00 0.0000000000000000e+00
0.0000000000000000e+00 5.5999999999999996e+00 0.0000000000000000e+00
ITEM: ATOMS x y z
0.630182 0.630182 0.630182
3.39845 3.39845 0.632267
3.39845 0.632267 3.39845
0.632267 3.39845 3.39845
4.81773 2.05155 2.05155
2.05155 4.81773 2.05155
2.05155 2.05155 4.81773
4.81982 4.81982 4.81982
ITEM: TIMESTEP
180
ITEM: NUMBER OF ATOMS
8
ITEM: BOX BOUNDS xy xz yz pp pp pp
0.0000000000000000e+00 5.5999999999999996e+00 0.0000000000000000e+00
0.0000000000000000e+00 5.5999999999999996e+00 0.0000000000000000e+00
0.0000000000000000e+00 5.5999999999999996e+00 0.0000000000000000e+00
ITEM: ATOMS x y z
0.644437 0.644437 0.644437
3.37582 3.37582 0.638093
3.37582 0.638093 3.37582
0.638093 3.37582 3.37582
4.81191 2.07418 2.07418
2.07418 4.81191 2.07418
2.07418 2.07418 4.81191
4.80556 4.80556 4.80556
ITEM: TIMESTEP
190
ITEM: NUMBER OF ATOMS
8
ITEM: BOX BOUNDS xy xz yz pp pp pp
0.0000000000000000e+00 5.5999999999999996e+00 0.0000000000000000e+00
0.0000000000000000e+00 5.5999999999999996e+00 0.0000000000000000e+00
0.0000000000000000e+00 5.5999999999999996e+00 0.0000000000000000e+00
ITEM: ATOMS x y z
0.654541 0.654541 0.654541
3.38184 3.38184 0.646735
3.38184 0.646735 3.38184
0.646735 3.38184 3.38184
4.80327 2.06816 2.06816
2.06816 4.80327 2.06816
2.06816 2.06816 4.80327
4.79546 4.79546 4.79546
ITEM: TIMESTEP
200
ITEM: NUMBER OF ATOMS
8
ITEM: BOX BOUNDS xy xz yz pp pp pp
0.0000000000000000e+00 5.5999999999999996e+00 0.0000000000000000e+00
0.0000000000000000e+00 5.5999999999999996e+00 0.0000000000000000e+00
0.0000000000000000e+00 5.5999999999999996e+00 0.0000000000000000e+00
ITEM: ATOMS x y z
0.655297 0.655297 0.655297
3.41088 3.41088 0.650986
3.41088 0.650986 3.41088
0.650986 3.41088 3.41088
4.79901 2.03912 2.03912
2.03912 4.79901 2.03912
2.03912 2.03912 4.79901
4.7947 4.7947 4.7947
ITEM: TIMESTEP
210
ITEM: NUMBER OF ATOMS
8
ITEM: BOX BOUNDS xy xz yz pp pp pp
0.0000000000000000e+00 5.5999999999999996e+00 0.0000000000000000e+00
0.0000000000000000e+00 5.5999999999999996e+00 0.0000000000000000e+00
0.0000000000000000e+00 5.5999999999999996e+00 0.0000000000000000e+00
ITEM: ATOMS x y z
0.642854 0.642854 0.642854
3.44436 3.44436 0.642041
3.44436 0.642041 3.44436
0.642041 3.44436 3.44436
4.80796 2.00564 2.00564
2.00564 4.80796 2.00564
2.00564 2.00564 4.80796
4.80715 4.80715 4.80715
ITEM: TIMESTEP
220
ITEM: NUMBER OF ATOMS
8
ITEM: BOX BOUNDS xy xz yz pp pp pp
0.0000000000000000e+00 5.5999999999999996e+00 0.0000000000000000e+00
0.0000000000000000e+00 5.5999999999999996e+00 0.0000000000000000e+00
0.0000000000000000e+00 5.5999999999999996e+00 0.0000000000000000e+00
ITEM: ATOMS x y z
0.617979 0.617979 0.617979
3.46488 3.46488 0.621295
3.46488 0.621295 3.46488
0.621295 3.46488 3.46488
4.8287 1.98512 1.98512
1.98512 4.8287 1.98512
1.98512 1.98512 4.8287
4.83202 4.83202 4.83202
ITEM: TIMESTEP
230
ITEM: NUMBER OF ATOMS
8
ITEM: BOX BOUNDS xy xz yz pp pp pp
0.0000000000000000e+00 5.5999999999999996e+00 0.0000000000000000e+00
0.0000000000000000e+00 5.5999999999999996e+00 0.0000000000000000e+00
0.0000000000000000e+00 5.5999999999999996e+00 0.0000000000000000e+00
ITEM: ATOMS x y z
0.591395 0.591395 0.591395
3.46444 3.46444 0.599201
3.46444 0.599201 3.46444
0.599201 3.46444 3.46444
4.8508 1.98556 1.98556
1.98556 4.8508 1.98556
1.98556 1.98556 4.8508
4.85861 4.85861 4.85861
ITEM: TIMESTEP
240
ITEM: NUMBER OF ATOMS
8
ITEM: BOX BOUNDS xy xz yz pp pp pp
0.0000000000000000e+00 5.5999999999999996e+00 0.0000000000000000e+00
0.0000000000000000e+00 5.5999999999999996e+00 0.0000000000000000e+00
0.0000000000000000e+00 5.5999999999999996e+00 0.0000000000000000e+00
ITEM: ATOMS x y z
0.582582 0.582582 0.582582
3.44612 3.44612 0.587576
3.44612 0.587576 3.44612
0.587576 3.44612 3.44612
4.86242 2.00388 2.00388
2.00388 4.86242 2.00388
2.00388 2.00388 4.86242
4.86742 4.86742 4.86742
ITEM: TIMESTEP
250
ITEM: NUMBER OF ATOMS
8
ITEM: BOX BOUNDS xy xz yz pp pp pp
0.0000000000000000e+00 5.5999999999999996e+00 0.0000000000000000e+00
0.0000000000000000e+00 5.5999999999999996e+00 0.0000000000000000e+00
0.0000000000000000e+00 5.5999999999999996e+00 0.0000000000000000e+00
ITEM: ATOMS x y z
0.601839 0.601839 0.601839
3.42135 3.42135 0.594521
3.42135 0.594521 3.42135
0.594521 3.42135 3.42135
4.85548 2.02865 2.02865
2.02865 4.85548 2.02865
2.02865 2.02865 4.85548
4.84816 4.84816 4.84816
ITEM: TIMESTEP
260
ITEM: NUMBER OF ATOMS
8
ITEM: BOX BOUNDS xy xz yz pp pp pp
0.0000000000000000e+00 5.5999999999999996e+00 0.0000000000000000e+00
0.0000000000000000e+00 5.5999999999999996e+00 0.0000000000000000e+00
0.0000000000000000e+00 5.5999999999999996e+00 0.0000000000000000e+00
ITEM: ATOMS x y z
0.63759 0.63759 0.63759
3.40315 3.40315 0.620037
3.40315 0.620037 3.40315
0.620037 3.40315 3.40315
4.82996 2.04685 2.04685
2.04685 4.82996 2.04685
2.04685 2.04685 4.82996
4.81241 4.81241 4.81241
ITEM: TIMESTEP
270
ITEM: NUMBER OF ATOMS
8
ITEM: BOX BOUNDS xy xz yz pp pp pp
0.0000000000000000e+00 5.5999999999999996e+00 0.0000000000000000e+00
0.0000000000000000e+00 5.5999999999999996e+00 0.0000000000000000e+00
0.0000000000000000e+00 5.5999999999999996e+00 0.0000000000000000e+00
ITEM: ATOMS x y z
0.670036 0.670036 0.670036
3.39818 3.39818 0.652609
3.39818 0.652609 3.39818
0.652609 3.39818 3.39818
4.79739 2.05182 2.05182
2.05182 4.79739 2.05182
2.05182 2.05182 4.79739
4.77996 4.77996 4.77996
ITEM: TIMESTEP
280
ITEM: NUMBER OF ATOMS
8
ITEM: BOX BOUNDS xy xz yz pp pp pp
0.0000000000000000e+00 5.5999999999999996e+00 0.0000000000000000e+00
0.0000000000000000e+00 5.5999999999999996e+00 0.0000000000000000e+00
0.0000000000000000e+00 5.5999999999999996e+00 0.0000000000000000e+00
ITEM: ATOMS x y z
0.685932 0.685932 0.685932
3.40416 3.40416 0.67296
3.40416 0.67296 3.40416
0.67296 3.40416 3.40416
4.77704 2.04584 2.04584
2.04584 4.77704 2.04584
2.04584 2.04584 4.77704
4.76407 4.76407 4.76407
ITEM: TIMESTEP
290
ITEM: NUMBER OF ATOMS
8
ITEM: BOX BOUNDS xy xz yz pp pp pp
0.0000000000000000e+00 5.5999999999999996e+00 0.0000000000000000e+00
0.0000000000000000e+00 5.5999999999999996e+00 0.0000000000000000e+00
0.0000000000000000e+00 5.5999999999999996e+00 0.0000000000000000e+00
ITEM: ATOMS x y z
0.68003 0.68003 0.68003
3.41472 3.41472 0.667065
3.41472 0.667065 3.41472
0.667065 3.41472 3.41472
4.78293 2.03528 2.03528
2.03528 4.78293 2.03528
2.03528 2.03528 4.78293
4.76997 4.76997 4.76997
ITEM: TIMESTEP
300
ITEM: NUMBER OF ATOMS
8
ITEM: BOX BOUNDS xy xz yz pp pp pp
0.0000000000000000e+00 5.5999999999999996e+00 0.0000000000000000e+00
0.0000000000000000e+00 5.5999999999999996e+00 0.0000000000000000e+00
0.0000000000000000e+00 5.5999999999999996e+00 0.0000000000000000e+00
ITEM: ATOMS x y z
0.652586 0.652586 0.652586
3.42452 3.42452 0.637072
3.42452 0.637072 3.42452
0.637072 3.42452 3.42452
4.81293 2.02548 2.02548
2.02548 4.81293 2.02548
2.02548 2.02548 4.81293
4.79741 4.79741 4.79741
ITEM: TIMESTEP
310
ITEM: NUMBER OF ATOMS
8
ITEM: BOX BOUNDS xy xz yz pp pp pp
0.0000000000000000e+00 5.5999999999999996e+00 0.0000000000000000e+00
0.0000000000000000e+00 5.5999999999999996e+00 0.0000000000000000e+00
0.0000000000000000e+00 5.5999999999999996e+00 0.0000000000000000e+00
ITEM: ATOMS x y z
0.611876 0.611876 0.611876
3.43175 3.43175 0.599975
3.43175 0.599975 3.43175
0.599975 3.43175 3.43175
4.85003 2.01825 2.01825
2.01825 4.85003 2.01825
2.01825 2.01825 4.85003
4.83812 4.83812 4.83812
ITEM: TIMESTEP
320
ITEM: NUMBER OF ATOMS
8
ITEM: BOX BOUNDS xy xz yz pp pp pp
0.0000000000000000e+00 5.5999999999999996e+00 0.0000000000000000e+00
0.0000000000000000e+00 5.5999999999999996e+00 0.0000000000000000e+00
0.0000000000000000e+00 5.5999999999999996e+00 0.0000000000000000e+00
ITEM: ATOMS x y z
0.579379 0.579379 0.579379
3.4378 3.4378 0.576441
3.4378 0.576441 3.4378
0.576441 3.4378 3.4378
4.87356 2.0122 2.0122
2.0122 4.87356 2.0122
2.0122 2.0122 4.87356
4.87062 4.87062 4.87062
ITEM: TIMESTEP
330
ITEM: NUMBER OF ATOMS
8
ITEM: BOX BOUNDS xy xz yz pp pp pp
0.0000000000000000e+00 5.5999999999999996e+00 0.0000000000000000e+00
0.0000000000000000e+00 5.5999999999999996e+00 0.0000000000000000e+00
0.0000000000000000e+00 5.5999999999999996e+00 0.0000000000000000e+00
ITEM: ATOMS x y z
0.579286 0.579286 0.579286
3.44325 3.44325 0.578646
3.44325 0.578646 3.44325
0.578646 3.44325 3.44325
4.87135 2.00675 2.00675
2.00675 4.87135 2.00675
2.00675 2.00675 4.87135
4.87071 4.87071 4.87071
ITEM: TIMESTEP
340
ITEM: NUMBER OF ATOMS
8
ITEM: BOX BOUNDS xy xz yz pp pp pp
0.0000000000000000e+00 5.5999999999999996e+00 0.0000000000000000e+00
0.0000000000000000e+00 5.5999999999999996e+00 0.0000000000000000e+00
0.0000000000000000e+00 5.5999999999999996e+00 0.0000000000000000e+00
ITEM: ATOMS x y z
0.61087 0.61087 0.61087
3.44466 3.44466 0.604571
3.44466 0.604571 3.44466
0.604571 3.44466 3.44466
4.84543 2.00534 2.00534
2.00534 4.84543 2.00534
2.00534 2.00534 4.84543
4.83913 4.83913 4.83913
ITEM: TIMESTEP
350
ITEM: NUMBER OF ATOMS
8
ITEM: BOX BOUNDS xy xz yz pp pp pp
0.0000000000000000e+00 5.5999999999999996e+00 0.0000000000000000e+00
0.0000000000000000e+00 5.5999999999999996e+00 0.0000000000000000e+00
0.0000000000000000e+00 5.5999999999999996e+00 0.0000000000000000e+00
ITEM: ATOMS x y z
0.649279 0.649279 0.649279
3.43707 3.43707 0.639745
3.43707 0.639745 3.43707
0.639745 3.43707 3.43707
4.81026 2.01293 2.01293
2.01293 4.81026 2.01293
2.01293 2.01293 4.81026
4.80072 4.80072 4.80072
ITEM: TIMESTEP
360
ITEM: NUMBER OF ATOMS
8
ITEM: BOX BOUNDS xy xz yz pp pp pp
0.0000000000000000e+00 5.5999999999999996e+00 0.0000000000000000e+00
0.0000000000000000e+00 5.5999999999999996e+00 0.0000000000000000e+00
0.0000000000000000e+00 5.5999999999999996e+00 0.0000000000000000e+00
ITEM: ATOMS x y z
0.673879 0.673879 0.673879
3.41989 3.41989 0.664834
3.41989 0.664834 3.41989
0.664834 3.41989 3.41989
4.78517 2.03011 2.03011
2.03011 4.78517 2.03011
2.03011 2.03011 4.78517
4.77612 4.77612 4.77612
ITEM: TIMESTEP
370
ITEM: NUMBER OF ATOMS
8
ITEM: BOX BOUNDS xy xz yz pp pp pp
0.0000000000000000e+00 5.5999999999999996e+00 0.0000000000000000e+00
0.0000000000000000e+00 5.5999999999999996e+00 0.0000000000000000e+00
0.0000000000000000e+00 5.5999999999999996e+00 0.0000000000000000e+00
ITEM: ATOMS x y z
0.677847 0.677847 0.677847
3.3996 3.3996 0.666658
3.3996 0.666658 3.3996
0.666658 3.3996 3.3996
4.78334 2.0504 2.0504
2.0504 4.78334 2.0504
2.0504 2.0504 4.78334
4.77215 4.77215 4.77215
ITEM: TIMESTEP
380
ITEM: NUMBER OF ATOMS
8
ITEM: BOX BOUNDS xy xz yz pp pp pp
0.0000000000000000e+00 5.5999999999999996e+00 0.0000000000000000e+00
0.0000000000000000e+00 5.5999999999999996e+00 0.0000000000000000e+00
0.0000000000000000e+00 5.5999999999999996e+00 0.0000000000000000e+00
ITEM: ATOMS x y z
0.662485 0.662485 0.662485
3.38764 3.38764 0.647148
3.38764 0.647148 3.38764
0.647148 3.38764 3.38764
4.80285 2.06236 2.06236
2.06236 4.80285 2.06236
2.06236 2.06236 4.80285
4.78751 4.78751 4.78751
ITEM: TIMESTEP
390
ITEM: NUMBER OF ATOMS
8
ITEM: BOX BOUNDS xy xz yz pp pp pp
0.0000000000000000e+00 5.5999999999999996e+00 0.0000000000000000e+00
0.0000000000000000e+00 5.5999999999999996e+00 0.0000000000000000e+00
0.0000000000000000e+00 5.5999999999999996e+00 0.0000000000000000e+00
ITEM: ATOMS x y z
0.63431 0.63431 0.63431
3.39439 3.39439 0.621325
3.39439 0.621325 3.39439
0.621325 3.39439 3.39439
4.82867 2.05561 2.05561
2.05561 4.82867 2.05561
2.05561 2.05561 4.82867
4.81569 4.81569 4.81569
ITEM: TIMESTEP
400
ITEM: NUMBER OF ATOMS
8
ITEM: BOX BOUNDS xy xz yz pp pp pp
0.0000000000000000e+00 5.5999999999999996e+00 0.0000000000000000e+00
0.0000000000000000e+00 5.5999999999999996e+00 0.0000000000000000e+00
0.0000000000000000e+00 5.5999999999999996e+00 0.0000000000000000e+00
ITEM: ATOMS x y z
0.605427 0.605427 0.605427
3.42021 3.42021 0.603881
3.42021 0.603881 3.42021
0.603881 3.42021 3.42021
4.84612 2.02979 2.02979
2.02979 4.84612 2.02979
2.02979 2.02979 4.84612
4.84457 4.84457 4.84457
ITEM: TIMESTEP
410
ITEM: NUMBER OF ATOMS
8
ITEM: BOX BOUNDS xy xz yz pp pp pp
0.0000000000000000e+00 5.5999999999999996e+00 0.0000000000000000e+00
0.0000000000000000e+00 5.5999999999999996e+00 0.0000000000000000e+00
0.0000000000000000e+00 5.5999999999999996e+00 0.0000000000000000e+00
ITEM: ATOMS x y z
0.590351 0.590351 0.590351
3.4523 3.4523 0.599903
3.4523 0.599903 3.4523
0.599903 3.4523 3.4523
4.8501 1.9977 1.9977
1.9977 4.8501 1.9977
1.9977 1.9977 4.8501
4.85965 4.85965 4.85965
ITEM: TIMESTEP
420
ITEM: NUMBER OF ATOMS
8
ITEM: BOX BOUNDS xy xz yz pp pp pp
0.0000000000000000e+00 5.5999999999999996e+00 0.0000000000000000e+00
0.0000000000000000e+00 5.5999999999999996e+00 0.0000000000000000e+00
0.0000000000000000e+00 5.5999999999999996e+00 0.0000000000000000e+00
ITEM: ATOMS x y z
0.595686 0.595686 0.595686
3.47321 3.47321 0.607082
3.47321 0.607082 3.47321
0.607082 3.47321 3.47321
4.84292 1.97679 1.97679
1.97679 4.84292 1.97679
1.97679 1.97679 4.84292
4.85431 4.85431 4.85431
ITEM: TIMESTEP
430
ITEM: NUMBER OF ATOMS
8
ITEM: BOX BOUNDS xy xz yz pp pp pp
0.0000000000000000e+00 5.5999999999999996e+00 0.0000000000000000e+00
0.0000000000000000e+00 5.5999999999999996e+00 0.0000000000000000e+00
0.0000000000000000e+00 5.5999999999999996e+00 0.0000000000000000e+00
ITEM: ATOMS x y z
0.613637 0.613637 0.613637
3.47126 3.47126 0.6202
3.47126 0.6202 3.47126
0.6202 3.47126 3.47126
4.8298 1.97874 1.97874
1.97874 4.8298 1.97874
1.97874 1.97874 4.8298
4.83636 4.83636 4.83636
ITEM: TIMESTEP
440
ITEM: NUMBER OF ATOMS
8
ITEM: BOX BOUNDS xy xz yz pp pp pp
0.0000000000000000e+00 5.5999999999999996e+00 0.0000000000000000e+00
0.0000000000000000e+00 5.5999999999999996e+00 0.0000000000000000e+00
0.0000000000000000e+00 5.5999999999999996e+00 0.0000000000000000e+00
ITEM: ATOMS x y z
0.63137 0.63137 0.63137
3.44568 3.44568 0.632485
3.44568 0.632485 3.44568
0.632485 3.44568 3.44568
4.81752 2.00432 2.00432
2.00432 4.81752 2.00432
2.00432 2.00432 4.81752
4.81863 4.81863 4.81863
ITEM: TIMESTEP
450
ITEM: NUMBER OF ATOMS
8
ITEM: BOX BOUNDS xy xz yz pp pp pp
0.0000000000000000e+00 5.5999999999999996e+00 0.0000000000000000e+00
0.0000000000000000e+00 5.5999999999999996e+00 0.0000000000000000e+00
0.0000000000000000e+00 5.5999999999999996e+00 0.0000000000000000e+00
ITEM: ATOMS x y z
0.642253 0.642253 0.642253
3.40777 3.40777 0.638428
3.40777 0.638428 3.40777
0.638428 3.40777 3.40777
4.81157 2.04223 2.04223
2.04223 4.81157 2.04223
2.04223 2.04223 4.81157
4.80775 4.80775 4.80775
ITEM: TIMESTEP
460
ITEM: NUMBER OF ATOMS
8
ITEM: BOX BOUNDS xy xz yz pp pp pp
0.0000000000000000e+00 5.5999999999999996e+00 0.0000000000000000e+00
0.0000000000000000e+00 5.5999999999999996e+00 0.0000000000000000e+00
0.0000000000000000e+00 5.5999999999999996e+00 0.0000000000000000e+00
ITEM: ATOMS x y z
0.646155 0.646155 0.646155
3.3782 3.3782 0.639557
3.3782 0.639557 3.3782
0.639557 3.3782 3.3782
4.81044 2.0718 2.0718
2.0718 4.81044 2.0718
2.0718 2.0718 4.81044
4.80385 4.80385 4.80385
ITEM: TIMESTEP
470
ITEM: NUMBER OF ATOMS
8
ITEM: BOX BOUNDS xy xz yz pp pp pp
0.0000000000000000e+00 5.5999999999999996e+00 0.0000000000000000e+00
0.0000000000000000e+00 5.5999999999999996e+00 0.0000000000000000e+00
0.0000000000000000e+00 5.5999999999999996e+00 0.0000000000000000e+00
ITEM: ATOMS x y z
0.644757 0.644757 0.644757
3.37543 3.37543 0.641937
3.37543 0.641937 3.37543
0.641937 3.37543 3.37543
4.80806 2.07457 2.07457
2.07457 4.80806 2.07457
2.07457 2.07457 4.80806
4.80524 4.80524 4.80524
ITEM: TIMESTEP
480
ITEM: NUMBER OF ATOMS
8
ITEM: BOX BOUNDS xy xz yz pp pp pp
0.0000000000000000e+00 5.5999999999999996e+00 0.0000000000000000e+00
0.0000000000000000e+00 5.5999999999999996e+00 0.0000000000000000e+00
0.0000000000000000e+00 5.5999999999999996e+00 0.0000000000000000e+00
ITEM: ATOMS x y z
0.639012 0.639012 0.639012
3.40102 3.40102 0.644788
3.40102 0.644788 3.40102
0.644788 3.40102 3.40102
4.80521 2.04898 2.04898
2.04898 4.80521 2.04898
2.04898 2.04898 4.80521
4.81099 4.81099 4.81099
ITEM: TIMESTEP
490
ITEM: NUMBER OF ATOMS
8
ITEM: BOX BOUNDS xy xz yz pp pp pp
0.0000000000000000e+00 5.5999999999999996e+00 0.0000000000000000e+00
0.0000000000000000e+00 5.5999999999999996e+00 0.0000000000000000e+00
0.0000000000000000e+00 5.5999999999999996e+00 0.0000000000000000e+00
ITEM: ATOMS x y z
0.628822 0.628822 0.628822
3.43869 3.43869 0.640125
3.43869 0.640125 3.43869
0.640125 3.43869 3.43869
4.80987 2.01131 2.01131
2.01131 4.80987 2.01131
2.01131 2.01131 4.80987
4.82118 4.82118 4.82118
ITEM: TIMESTEP
500
ITEM: NUMBER OF ATOMS
8
ITEM: BOX BOUNDS xy xz yz pp pp pp
0.0000000000000000e+00 5.5999999999999996e+00 0.0000000000000000e+00
0.0000000000000000e+00 5.5999999999999996e+00 0.0000000000000000e+00
0.0000000000000000e+00 5.5999999999999996e+00 0.0000000000000000e+00
ITEM: ATOMS x y z
0.614411 0.614411 0.614411
3.46767 3.46767 0.625188
3.46767 0.625188 3.46767
0.625188 3.46767 3.46767
4.82481 1.98233 1.98233
1.98233 4.82481 1.98233
1.98233 1.98233 4.82481
4.83559 4.83559 4.83559
ITEM: TIMESTEP
510
ITEM: NUMBER OF ATOMS
8
ITEM: BOX BOUNDS xy xz yz pp pp pp
0.0000000000000000e+00 5.5999999999999996e+00 0.0000000000000000e+00
0.0000000000000000e+00 5.5999999999999996e+00 0.0000000000000000e+00
0.0000000000000000e+00 5.5999999999999996e+00 0.0000000000000000e+00
ITEM: ATOMS x y z
0.599891 0.599891 0.599891
3.47466 3.47466 0.606726
3.47466 0.606726 3.47466
0.606726 3.47466 3.47466
4.84327 1.97534 1.97534
1.97534 4.84327 1.97534
1.97534 1.97534 4.84327
4.85011 4.85011 4.85011
ITEM: TIMESTEP
520
ITEM: NUMBER OF ATOMS
8
ITEM: BOX BOUNDS xy xz yz pp pp pp
0.0000000000000000e+00 5.5999999999999996e+00 0.0000000000000000e+00
0.0000000000000000e+00 5.5999999999999996e+00 0.0000000000000000e+00
0.0000000000000000e+00 5.5999999999999996e+00 0.0000000000000000e+00
ITEM: ATOMS x y z
0.594294 0.594294 0.594294
3.4577 3.4577 0.594427
3.4577 0.594427 3.4577
0.594427 3.4577 3.4577
4.85557 1.9923 1.9923
1.9923 4.85557 1.9923
1.9923 1.9923 4.85557
4.85571 4.85571 4.85571
ITEM: TIMESTEP
530
ITEM: NUMBER OF ATOMS
8
ITEM: BOX BOUNDS xy xz yz pp pp pp
0.0000000000000000e+00 5.5999999999999996e+00 0.0000000000000000e+00
0.0000000000000000e+00 5.5999999999999996e+00 0.0000000000000000e+00
0.0000000000000000e+00 5.5999999999999996e+00 0.0000000000000000e+00
ITEM: ATOMS x y z
0.60483 0.60483 0.60483
3.42649 3.42649 0.595888
3.42649 0.595888 3.42649
0.595888 3.42649 3.42649
4.85411 2.02351 2.02351
2.02351 4.85411 2.02351
2.02351 2.02351 4.85411
4.84517 4.84517 4.84517
ITEM: TIMESTEP
540
ITEM: NUMBER OF ATOMS
8
ITEM: BOX BOUNDS xy xz yz pp pp pp
0.0000000000000000e+00 5.5999999999999996e+00 0.0000000000000000e+00
0.0000000000000000e+00 5.5999999999999996e+00 0.0000000000000000e+00
0.0000000000000000e+00 5.5999999999999996e+00 0.0000000000000000e+00
ITEM: ATOMS x y z
0.628502 0.628502 0.628502
3.3984 3.3984 0.614378
3.3984 0.614378 3.3984
0.614378 3.3984 3.3984
4.83562 2.0516 2.0516
2.0516 4.83562 2.0516
2.0516 2.0516 4.83562
4.8215 4.8215 4.8215
ITEM: TIMESTEP
550
ITEM: NUMBER OF ATOMS
8
ITEM: BOX BOUNDS xy xz yz pp pp pp
0.0000000000000000e+00 5.5999999999999996e+00 0.0000000000000000e+00
0.0000000000000000e+00 5.5999999999999996e+00 0.0000000000000000e+00
0.0000000000000000e+00 5.5999999999999996e+00 0.0000000000000000e+00
ITEM: ATOMS x y z
0.654041 0.654041 0.654041
3.3879 3.3879 0.644556
3.3879 0.644556 3.3879
0.644556 3.3879 3.3879
4.80544 2.0621 2.0621
2.0621 4.80544 2.0621
2.0621 2.0621 4.80544
4.79596 4.79596 4.79596
ITEM: TIMESTEP
560
ITEM: NUMBER OF ATOMS
8
ITEM: BOX BOUNDS xy xz yz pp pp pp
0.0000000000000000e+00 5.5999999999999996e+00 0.0000000000000000e+00
0.0000000000000000e+00 5.5999999999999996e+00 0.0000000000000000e+00
0.0000000000000000e+00 5.5999999999999996e+00 0.0000000000000000e+00
ITEM: ATOMS x y z
0.670039 0.670039 0.670039
3.39672 3.39672 0.669984
3.39672 0.669984 3.39672
0.669984 3.39672 3.39672
4.78002 2.05328 2.05328
2.05328 4.78002 2.05328
2.05328 2.05328 4.78002
4.77996 4.77996 4.77996
ITEM: TIMESTEP
570
ITEM: NUMBER OF ATOMS
8
ITEM: BOX BOUNDS xy xz yz pp pp pp
0.0000000000000000e+00 5.5999999999999996e+00 0.0000000000000000e+00
0.0000000000000000e+00 5.5999999999999996e+00 0.0000000000000000e+00
0.0000000000000000e+00 5.5999999999999996e+00 0.0000000000000000e+00
ITEM: ATOMS x y z
0.669361 0.669361 0.669361
3.41574 3.41574 0.67246
3.41574 0.67246 3.41574
0.67246 3.41574 3.41574
4.77754 2.03426 2.03426
2.03426 4.77754 2.03426
2.03426 2.03426 4.77754
4.78064 4.78064 4.78064
ITEM: TIMESTEP
580
ITEM: NUMBER OF ATOMS
8
ITEM: BOX BOUNDS xy xz yz pp pp pp
0.0000000000000000e+00 5.5999999999999996e+00 0.0000000000000000e+00
0.0000000000000000e+00 5.5999999999999996e+00 0.0000000000000000e+00
0.0000000000000000e+00 5.5999999999999996e+00 0.0000000000000000e+00
ITEM: ATOMS x y z
0.649908 0.649908 0.649908
3.43379 3.43379 0.647428
3.43379 0.647428 3.43379
0.647428 3.43379 3.43379
4.80257 2.01621 2.01621
2.01621 4.80257 2.01621
2.01621 2.01621 4.80257
4.80009 4.80009 4.80009
ITEM: TIMESTEP
590
ITEM: NUMBER OF ATOMS
8
ITEM: BOX BOUNDS xy xz yz pp pp pp
0.0000000000000000e+00 5.5999999999999996e+00 0.0000000000000000e+00
0.0000000000000000e+00 5.5999999999999996e+00 0.0000000000000000e+00
0.0000000000000000e+00 5.5999999999999996e+00 0.0000000000000000e+00
ITEM: ATOMS x y z
0.616727 0.616727 0.616727
3.44364 3.44364 0.608031
3.44364 0.608031 3.44364
0.608031 3.44364 3.44364
4.84197 2.00636 2.00636
2.00636 4.84197 2.00636
2.00636 2.00636 4.84197
4.83327 4.83327 4.83327
ITEM: TIMESTEP
600
ITEM: NUMBER OF ATOMS
8
ITEM: BOX BOUNDS xy xz yz pp pp pp