
     Program PWSCF v.7.4 starts on 20Nov2025 at 10:25: 2 

     This program is part of the open-source Quantum ESPRESSO suite
     for quantum simulation of materials; please cite
         "P. Giannozzi et al., J. Phys.:Condens. Matter 21 395502 (2009);
         "P. Giannozzi et al., J. Phys.:Condens. Matter 29 465901 (2017);
         "P. Giannozzi et al., J. Chem. Phys. 152 154105 (2020);
          URL http://www.quantum-espresso.org", 
     in publications or presentations arising from this work. More details at
     http://www.quantum-espresso.org/quote

     Parallel version (MPI), running on     1 processors

     MPI processes distributed on     1 nodes
     408 MiB available memory on the printing compute node when the environment starts

     Waiting for input...
     Reading input from standard input

     Current dimensions of program PWSCF are:
     Max number of different atomic species (ntypx) = 10
     Max number of k-points (npk) =  40000
     Max angular momentum in pseudopotentials (lmaxx) =  4

     Atomic positions and unit cell read from directory:
     output/diamond.save/


     Subspace diagonalization in iterative solution of the eigenvalue problem:
     a serial algorithm will be used


     G-vector sticks info
     --------------------
     sticks:   dense  smooth     PW     G-vecs:    dense   smooth      PW
     Sum         511     511    163                 7727     7727    1411

     Using Slab Decomposition



     bravais-lattice index     =            2
     lattice parameter (alat)  =       6.7400  a.u.
     unit-cell volume          =      76.5455 (a.u.)^3
     number of atoms/cell      =            2
     number of atomic types    =            1
     number of electrons       =         8.00
     number of Kohn-Sham states=            6
     kinetic-energy cutoff     =      82.0000  Ry
     charge density cutoff     =     328.0000  Ry
     Exchange-correlation= PBE
                           (   1   4   3   4   0   0   0)

     celldm(1)=   6.740000  celldm(2)=   0.000000  celldm(3)=   0.000000
     celldm(4)=   0.000000  celldm(5)=   0.000000  celldm(6)=   0.000000

     crystal axes: (cart. coord. in units of alat)
               a(1) = (  -0.500000   0.000000   0.500000 )  
               a(2) = (   0.000000   0.500000   0.500000 )  
               a(3) = (  -0.500000   0.500000   0.000000 )  

     reciprocal axes: (cart. coord. in units 2 pi/alat)
               b(1) = ( -1.000000 -1.000000  1.000000 )  
               b(2) = (  1.000000  1.000000  1.000000 )  
               b(3) = ( -1.000000  1.000000 -1.000000 )  


     PseudoPot. # 1 for C  read from file:
     ./pseudo/C.upf
     MD5 check sum: 34a24e64c0a39f27c6c36b90a16ac686
     Pseudo is Norm-conserving + core correction, Zval =  4.0
     Generated using ONCVPSP code by D. R. Hamann
     Using radial grid of 1248 points,  4 beta functions with: 
                l(1) =   0
                l(2) =   0
                l(3) =   1
                l(4) =   1

     atomic species   valence    mass     pseudopotential
     C                 4.00    12.01070     C ( 1.00)

     48 Sym. Ops., with inversion, found (24 have fractional translation)



   Cartesian axes

     site n.     atom                  positions (alat units)
         1        C      tau(   1) = (   0.0000000   0.0000000   0.0000000  )
         2        C      tau(   2) = (   0.2500000   0.2500000   0.2500000  )

     number of k points=    47 (tetrahedron method)
                       cart. coord. in units 2pi/alat
        k(    1) = (   0.0000000   0.0000000   0.0000000), wk =   0.0020000
        k(    2) = (  -0.1000000   0.1000000  -0.1000000), wk =   0.0160000
        k(    3) = (  -0.2000000   0.2000000  -0.2000000), wk =   0.0160000
        k(    4) = (  -0.3000000   0.3000000  -0.3000000), wk =   0.0160000
        k(    5) = (  -0.4000000   0.4000000  -0.4000000), wk =   0.0160000
        k(    6) = (   0.5000000  -0.5000000   0.5000000), wk =   0.0080000
        k(    7) = (   0.0000000   0.2000000   0.0000000), wk =   0.0120000
        k(    8) = (  -0.1000000   0.3000000  -0.1000000), wk =   0.0480000
        k(    9) = (  -0.2000000   0.4000000  -0.2000000), wk =   0.0480000
        k(   10) = (  -0.3000000   0.5000000  -0.3000000), wk =   0.0480000
        k(   11) = (   0.6000000  -0.4000000   0.6000000), wk =   0.0480000
        k(   12) = (   0.5000000  -0.3000000   0.5000000), wk =   0.0480000
        k(   13) = (   0.4000000  -0.2000000   0.4000000), wk =   0.0480000
        k(   14) = (   0.3000000  -0.1000000   0.3000000), wk =   0.0480000
        k(   15) = (   0.2000000   0.0000000   0.2000000), wk =   0.0240000
        k(   16) = (   0.0000000   0.4000000   0.0000000), wk =   0.0120000
        k(   17) = (  -0.1000000   0.5000000  -0.1000000), wk =   0.0480000
        k(   18) = (  -0.2000000   0.6000000  -0.2000000), wk =   0.0480000
        k(   19) = (   0.7000000  -0.3000000   0.7000000), wk =   0.0480000
        k(   20) = (   0.6000000  -0.2000000   0.6000000), wk =   0.0480000
        k(   21) = (   0.5000000  -0.1000000   0.5000000), wk =   0.0480000
        k(   22) = (   0.4000000   0.0000000   0.4000000), wk =   0.0240000
        k(   23) = (   0.0000000   0.6000000   0.0000000), wk =   0.0120000
        k(   24) = (  -0.1000000   0.7000000  -0.1000000), wk =   0.0480000
        k(   25) = (   0.8000000  -0.2000000   0.8000000), wk =   0.0480000
        k(   26) = (   0.7000000  -0.1000000   0.7000000), wk =   0.0480000
        k(   27) = (   0.6000000   0.0000000   0.6000000), wk =   0.0240000
        k(   28) = (   0.0000000   0.8000000   0.0000000), wk =   0.0120000
        k(   29) = (   0.9000000  -0.1000000   0.9000000), wk =   0.0480000
        k(   30) = (   0.8000000   0.0000000   0.8000000), wk =   0.0240000
        k(   31) = (   0.0000000  -1.0000000   0.0000000), wk =   0.0060000
        k(   32) = (  -0.2000000   0.4000000   0.0000000), wk =   0.0480000
        k(   33) = (  -0.3000000   0.5000000  -0.1000000), wk =   0.0960000
        k(   34) = (   0.6000000  -0.4000000   0.8000000), wk =   0.0960000
        k(   35) = (   0.5000000  -0.3000000   0.7000000), wk =   0.0480000
        k(   36) = (  -0.2000000   0.6000000   0.0000000), wk =   0.0480000
        k(   37) = (   0.7000000  -0.3000000   0.9000000), wk =   0.0960000
        k(   38) = (   0.6000000  -0.2000000   0.8000000), wk =   0.0960000
        k(   39) = (   0.5000000  -0.1000000   0.7000000), wk =   0.0960000
        k(   40) = (   0.4000000   0.0000000   0.6000000), wk =   0.0480000
        k(   41) = (   0.8000000  -0.2000000   1.0000000), wk =   0.0480000
        k(   42) = (   0.7000000  -0.1000000   0.9000000), wk =   0.0960000
        k(   43) = (   0.6000000   0.0000000   0.8000000), wk =   0.0480000
        k(   44) = (  -0.2000000  -1.0000000   0.0000000), wk =   0.0240000
        k(   45) = (   0.6000000  -0.2000000   1.0000000), wk =   0.0480000
        k(   46) = (   0.5000000  -0.1000000   0.9000000), wk =   0.0480000
        k(   47) = (  -0.4000000  -1.0000000   0.0000000), wk =   0.0240000

     Dense  grid:     7727 G-vectors     FFT dimensions: (  32,  32,  32)

     Estimated max dynamical RAM per process >       4.31 MB

     The potential is recalculated from file :
     output/diamond.save/charge-density

     Starting wfcs are    8 randomized atomic wfcs

     Band Structure Calculation
     Davidson diagonalization with overlap

     ethr =  1.25E-08,  avg # of iterations = 31.8

     total cpu time spent up to now is        1.8 secs

     End of band structure calculation

          k = 0.0000 0.0000 0.0000 (   941 PWs)   bands (ev):

    -8.1297  13.3605  13.3605  13.3605  18.9850  18.9850

          k =-0.1000 0.1000-0.1000 (   944 PWs)   bands (ev):

    -7.8531  11.6846  12.9131  12.9131  19.5717  19.5717

          k =-0.2000 0.2000-0.2000 (   947 PWs)   bands (ev):

    -7.0282   8.4756  12.0336  12.0336  20.7049  20.7049

          k =-0.3000 0.3000-0.3000 (   956 PWs)   bands (ev):

    -5.6747   5.0727  11.2389  11.2389  21.5352  21.5352

          k =-0.4000 0.4000-0.4000 (   951 PWs)   bands (ev):

    -3.8643   1.9380  10.7239  10.7239  21.8350  21.8350

          k = 0.5000-0.5000 0.5000 (   960 PWs)   bands (ev):

    -2.3531  -0.0278  10.5481  10.5481  21.8768  21.8768

          k = 0.0000 0.2000 0.0000 (   937 PWs)   bands (ev):

    -7.7609  12.1328  12.1328  12.4888  18.7124  20.5268

          k =-0.1000 0.3000-0.1000 (   950 PWs)   bands (ev):

    -7.1190   9.5906  11.1626  12.0206  19.1393  21.8247

          k =-0.2000 0.4000-0.2000 (   948 PWs)   bands (ev):

    -5.9411   6.3153  10.4132  11.1505  20.1816  22.6717

          k =-0.3000 0.5000-0.3000 (   956 PWs)   bands (ev):

    -4.2725   3.1142  10.0341  10.2787  20.9072  23.0111

          k = 0.6000-0.4000 0.6000 (   964 PWs)   bands (ev):

    -2.4070   0.5176   9.6435  10.0608  21.3170  22.7707

          k = 0.5000-0.3000 0.5000 (   958 PWs)   bands (ev):

    -2.9861   1.2479   9.3505  10.4732  21.7111  22.3498

          k = 0.4000-0.2000 0.4000 (   958 PWs)   bands (ev):

    -4.8781   4.1587   9.4524  11.2057  21.7269  22.0244

          k = 0.3000-0.1000 0.3000 (   949 PWs)   bands (ev):

    -6.3921   7.4337   9.9671  12.1184  20.7468  21.8864

          k = 0.2000 0.0000 0.2000 (   949 PWs)   bands (ev):

    -7.3937  10.4252  11.0293  12.8822  19.7313  20.7482

          k = 0.0000 0.4000 0.0000 (   966 PWs)   bands (ev):

    -6.6622  10.1280  10.1280  10.2682  18.1266  23.4373

          k =-0.1000 0.5000-0.1000 (   963 PWs)   bands (ev):

    -5.6676   7.5217   9.3356   9.7071  18.5567  24.2114

          k =-0.2000 0.6000-0.2000 (   964 PWs)   bands (ev):

    -4.1676   4.5572   8.6499   8.9475  19.5106  24.6494

          k = 0.7000-0.3000 0.7000 (   960 PWs)   bands (ev):

    -2.3044   1.8187   7.6505   9.0108  20.0972  24.9379

          k = 0.6000-0.2000 0.6000 (   963 PWs)   bands (ev):

    -1.7591   1.1657   6.9795   9.5079  20.6678  24.2572

          k = 0.5000-0.1000 0.5000 (   962 PWs)   bands (ev):

    -3.5831   3.6713   6.7601  10.3571  21.3967  23.2333

          k = 0.4000 0.0000 0.4000 (   953 PWs)   bands (ev):

    -5.2270   6.3734   7.3502  11.3667  21.8864  21.9894

          k = 0.0000 0.6000 0.0000 (   966 PWs)   bands (ev):

    -4.8592   7.2719   8.4617   8.4617  17.6454  22.1133

          k =-0.1000 0.7000-0.1000 (   968 PWs)   bands (ev):

    -3.5407   5.2944   7.3666   7.9886  18.2066  21.4504

          k = 0.8000-0.2000 0.8000 (   963 PWs)   bands (ev):

    -1.7986   3.1129   5.8326   7.9839  18.9796  22.9729

          k = 0.7000-0.1000 0.7000 (   965 PWs)   bands (ev):

    -0.4496   1.6831   4.6843   8.4440  19.5602  25.9790

          k = 0.6000 0.0000 0.6000 (   967 PWs)   bands (ev):

    -1.8832   3.2058   4.4885   9.2973  20.3980  25.1206

          k = 0.0000 0.8000 0.0000 (   962 PWs)   bands (ev):

    -2.4076   3.9150   7.4040   7.4040  17.5888  19.6426

          k = 0.9000-0.1000 0.9000 (   963 PWs)   bands (ev):

    -0.8279   2.2807   6.2977   7.2870  18.2652  19.7349

          k = 0.8000 0.0000 0.8000 (   959 PWs)   bands (ev):

     0.6319   1.2448   4.5749   7.6513  18.7779  22.4155

          k = 0.0000-1.0000 0.0000 (   982 PWs)   bands (ev):

     0.5834   0.5834   7.0437   7.0437  18.1859  18.1859

          k =-0.2000 0.4000 0.0000 (   956 PWs)   bands (ev):

    -6.3004   8.3187   9.1334  11.4535  19.5325  22.7963

          k =-0.3000 0.5000-0.1000 (   962 PWs)   bands (ev):

    -4.9600   5.4907   8.2591  10.5584  20.6619  22.9792

          k = 0.6000-0.4000 0.8000 (   962 PWs)   bands (ev):

    -3.1750   2.5227   8.0194   9.6905  21.4136  22.7228

          k = 0.5000-0.3000 0.7000 (   960 PWs)   bands (ev):

    -1.7039   0.6342   8.0118   9.3067  21.6124  22.5736

          k =-0.2000 0.6000 0.0000 (   963 PWs)   bands (ev):

    -4.5105   6.2784   7.5408   9.0158  19.1098  23.2009

          k = 0.7000-0.3000 0.9000 (   962 PWs)   bands (ev):

    -2.8821   3.9409   6.6532   8.1769  20.2502  23.7128

          k = 0.6000-0.2000 0.8000 (   958 PWs)   bands (ev):

    -1.0962   1.6778   6.0102   8.0109  20.8677  24.4200

          k = 0.5000-0.1000 0.7000 (   965 PWs)   bands (ev):

    -1.6691   2.3998   5.5438   8.5832  21.5093  23.7250

          k = 0.4000 0.0000 0.6000 (   960 PWs)   bands (ev):

    -3.4867   4.6732   5.8537   9.5671  22.2775  22.3457

          k = 0.8000-0.2000 1.0000 (   969 PWs)   bands (ev):

    -2.0911   3.8222   6.5624   7.0563  19.0511  20.9334

          k = 0.7000-0.1000 0.9000 (   961 PWs)   bands (ev):

    -0.3230   2.2821   5.0071   6.9318  20.0270  22.6621

          k = 0.6000 0.0000 0.8000 (   964 PWs)   bands (ev):

    -0.0298   2.1129   4.0366   7.5482  20.6478  25.7074

          k =-0.2000-1.0000 0.0000 (   962 PWs)   bands (ev):

     0.8080   0.8080   6.3380   6.3380  19.5942  19.5942

          k = 0.6000-0.2000 1.0000 (   964 PWs)   bands (ev):

    -1.2000   3.1826   5.0304   6.9700  22.3667  23.2842

          k = 0.5000-0.1000 0.9000 (   958 PWs)   bands (ev):

     0.1667   1.9780   4.7159   6.3887  22.8723  23.9641

          k =-0.4000-1.0000 0.0000 (   964 PWs)   bands (ev):

     1.2736   1.2736   5.2257   5.2257  22.7956  22.7956

     the Fermi energy is    17.4518 ev
     (compare with:    13.3609 eV, computed in scf)

     Writing all to output data dir output/diamond.save/ :
     XML data file, pseudopotentials, collected wavefunctions

     init_run     :      0.05s CPU      0.05s WALL (       1 calls)
     electrons    :      0.01s CPU      1.72s WALL (       1 calls)

     Called by init_run:
     wfcinit      :      0.00s CPU      0.00s WALL (       1 calls)
     potinit      :      0.01s CPU      0.01s WALL (       1 calls)
     hinit0       :      0.04s CPU      0.04s WALL (       1 calls)

     Called by electrons:
     c_bands      :      0.01s CPU      1.72s WALL (       1 calls)
     v_of_rho     :      0.00s CPU      0.01s WALL (       1 calls)

     Called by c_bands:
     init_us_2    :      0.00s CPU      0.00s WALL (      47 calls)
     cegterg      :      0.00s CPU      1.57s WALL (     102 calls)

     Called by *egterg:
     cdiaghg      :      0.00s CPU      0.03s WALL (    1543 calls)
     h_psi        :      0.01s CPU      1.44s WALL (    1645 calls)
     g_psi        :      0.00s CPU      0.01s WALL (    1496 calls)

     Called by h_psi:
     h_psi:calbec :      0.00s CPU      0.07s WALL (    1645 calls)
     vloc_psi     :      0.01s CPU      1.31s WALL (    1645 calls)
     add_vuspsi   :      0.00s CPU      0.04s WALL (    1645 calls)

     General routines
     calbec       :      0.00s CPU      0.06s WALL (    1645 calls)
     fft          :      0.00s CPU      0.01s WALL (      11 calls)
     fftw         :      0.01s CPU      1.15s WALL (   11432 calls)
     davcio       :      0.00s CPU      0.02s WALL (      94 calls)

     Parallel routines

     PWSCF        :      0.08s CPU      1.88s WALL


   This run was terminated on:  10:25: 4  20Nov2025            

=------------------------------------------------------------------------------=
   JOB DONE.
=------------------------------------------------------------------------------=
