
     Program PWSCF v.7.4 starts on 20Nov2025 at 10:22:13 

     This program is part of the open-source Quantum ESPRESSO suite
     for quantum simulation of materials; please cite
         "P. Giannozzi et al., J. Phys.:Condens. Matter 21 395502 (2009);
         "P. Giannozzi et al., J. Phys.:Condens. Matter 29 465901 (2017);
         "P. Giannozzi et al., J. Chem. Phys. 152 154105 (2020);
          URL http://www.quantum-espresso.org", 
     in publications or presentations arising from this work. More details at
     http://www.quantum-espresso.org/quote

     Parallel version (MPI), running on     1 processors

     MPI processes distributed on     1 nodes
     422 MiB available memory on the printing compute node when the environment starts

     Waiting for input...
     Reading input from standard input

     Current dimensions of program PWSCF are:
     Max number of different atomic species (ntypx) = 10
     Max number of k-points (npk) =  40000
     Max angular momentum in pseudopotentials (lmaxx) =  4

     Subspace diagonalization in iterative solution of the eigenvalue problem:
     a serial algorithm will be used


     G-vector sticks info
     --------------------
     sticks:   dense  smooth     PW     G-vecs:    dense   smooth      PW
     Sum         511     511    163                 7727     7727    1411

     Using Slab Decomposition



     bravais-lattice index     =            2
     lattice parameter (alat)  =       6.7400  a.u.
     unit-cell volume          =      76.5455 (a.u.)^3
     number of atoms/cell      =            2
     number of atomic types    =            1
     number of electrons       =         8.00
     number of Kohn-Sham states=            6
     kinetic-energy cutoff     =      82.0000  Ry
     charge density cutoff     =     328.0000  Ry
     scf convergence threshold =      1.0E-06
     mixing beta               =       0.7000
     number of iterations used =            8  plain     mixing
     Exchange-correlation= PBE
                           (   1   4   3   4   0   0   0)

     celldm(1)=   6.740000  celldm(2)=   0.000000  celldm(3)=   0.000000
     celldm(4)=   0.000000  celldm(5)=   0.000000  celldm(6)=   0.000000

     crystal axes: (cart. coord. in units of alat)
               a(1) = (  -0.500000   0.000000   0.500000 )  
               a(2) = (   0.000000   0.500000   0.500000 )  
               a(3) = (  -0.500000   0.500000   0.000000 )  

     reciprocal axes: (cart. coord. in units 2 pi/alat)
               b(1) = ( -1.000000 -1.000000  1.000000 )  
               b(2) = (  1.000000  1.000000  1.000000 )  
               b(3) = ( -1.000000  1.000000 -1.000000 )  


     PseudoPot. # 1 for C  read from file:
     ./pseudo/C.upf
     MD5 check sum: 34a24e64c0a39f27c6c36b90a16ac686
     Pseudo is Norm-conserving + core correction, Zval =  4.0
     Generated using ONCVPSP code by D. R. Hamann
     Using radial grid of 1248 points,  4 beta functions with: 
                l(1) =   0
                l(2) =   0
                l(3) =   1
                l(4) =   1

     atomic species   valence    mass     pseudopotential
     C                 4.00    12.01070     C ( 1.00)

     48 Sym. Ops., with inversion, found (24 have fractional translation)



   Cartesian axes

     site n.     atom                  positions (alat units)
         1        C      tau(   1) = (   0.0000000   0.0000000   0.0000000  )
         2        C      tau(   2) = (   0.2500000   0.2500000   0.2500000  )

     number of k points=    29
                       cart. coord. in units 2pi/alat
        k(    1) = (   0.0000000   0.0000000   0.0000000), wk =   0.0039062
        k(    2) = (  -0.1250000   0.1250000  -0.1250000), wk =   0.0312500
        k(    3) = (  -0.2500000   0.2500000  -0.2500000), wk =   0.0312500
        k(    4) = (  -0.3750000   0.3750000  -0.3750000), wk =   0.0312500
        k(    5) = (   0.5000000  -0.5000000   0.5000000), wk =   0.0156250
        k(    6) = (   0.0000000   0.2500000   0.0000000), wk =   0.0234375
        k(    7) = (  -0.1250000   0.3750000  -0.1250000), wk =   0.0937500
        k(    8) = (  -0.2500000   0.5000000  -0.2500000), wk =   0.0937500
        k(    9) = (   0.6250000  -0.3750000   0.6250000), wk =   0.0937500
        k(   10) = (   0.5000000  -0.2500000   0.5000000), wk =   0.0937500
        k(   11) = (   0.3750000  -0.1250000   0.3750000), wk =   0.0937500
        k(   12) = (   0.2500000   0.0000000   0.2500000), wk =   0.0468750
        k(   13) = (   0.0000000   0.5000000   0.0000000), wk =   0.0234375
        k(   14) = (  -0.1250000   0.6250000  -0.1250000), wk =   0.0937500
        k(   15) = (   0.7500000  -0.2500000   0.7500000), wk =   0.0937500
        k(   16) = (   0.6250000  -0.1250000   0.6250000), wk =   0.0937500
        k(   17) = (   0.5000000   0.0000000   0.5000000), wk =   0.0468750
        k(   18) = (   0.0000000   0.7500000   0.0000000), wk =   0.0234375
        k(   19) = (   0.8750000  -0.1250000   0.8750000), wk =   0.0937500
        k(   20) = (   0.7500000   0.0000000   0.7500000), wk =   0.0468750
        k(   21) = (   0.0000000  -1.0000000   0.0000000), wk =   0.0117188
        k(   22) = (  -0.2500000   0.5000000   0.0000000), wk =   0.0937500
        k(   23) = (   0.6250000  -0.3750000   0.8750000), wk =   0.1875000
        k(   24) = (   0.5000000  -0.2500000   0.7500000), wk =   0.0937500
        k(   25) = (   0.7500000  -0.2500000   1.0000000), wk =   0.0937500
        k(   26) = (   0.6250000  -0.1250000   0.8750000), wk =   0.1875000
        k(   27) = (   0.5000000   0.0000000   0.7500000), wk =   0.0937500
        k(   28) = (  -0.2500000  -1.0000000   0.0000000), wk =   0.0468750
        k(   29) = (  -0.5000000  -1.0000000   0.0000000), wk =   0.0234375

     Dense  grid:     7727 G-vectors     FFT dimensions: (  32,  32,  32)

     Estimated max dynamical RAM per process >       9.11 MB

     Initial potential from superposition of free atoms

     starting charge       7.9999, renormalised to       8.0000
     Starting wfcs are    8 randomized atomic wfcs

     total cpu time spent up to now is        0.2 secs

     Self-consistent Calculation

     iteration #  1     ecut=    82.00 Ry     beta= 0.70
     Davidson diagonalization with overlap
     ethr =  1.00E-02,  avg # of iterations =  3.0

     total cpu time spent up to now is        0.4 secs

     total energy              =     -24.06856352 Ry
     estimated scf accuracy    <       0.11042962 Ry

     iteration #  2     ecut=    82.00 Ry     beta= 0.70
     Davidson diagonalization with overlap
     ethr =  1.38E-03,  avg # of iterations =  1.3

     total cpu time spent up to now is        0.5 secs

     total energy              =     -24.07472885 Ry
     estimated scf accuracy    <       0.00318026 Ry

     iteration #  3     ecut=    82.00 Ry     beta= 0.70
     Davidson diagonalization with overlap
     ethr =  3.98E-05,  avg # of iterations =  4.8

     total cpu time spent up to now is        0.7 secs

     total energy              =     -24.07566020 Ry
     estimated scf accuracy    <       0.00007619 Ry

     iteration #  4     ecut=    82.00 Ry     beta= 0.70
     Davidson diagonalization with overlap
     ethr =  9.52E-07,  avg # of iterations =  5.7

     total cpu time spent up to now is        1.0 secs

     total energy              =     -24.07568717 Ry
     estimated scf accuracy    <       0.00000629 Ry

     iteration #  5     ecut=    82.00 Ry     beta= 0.70
     Davidson diagonalization with overlap
     ethr =  7.87E-08,  avg # of iterations =  2.0

     total cpu time spent up to now is        1.1 secs

     End of self-consistent calculation

          k = 0.0000 0.0000 0.0000 (   941 PWs)   bands (ev):

    -8.1296  13.3609  13.3609  13.3609  18.9854  18.9854

          k =-0.1250 0.1250-0.1250 (   950 PWs)   bands (ev):

    -7.6977  10.9448  12.7069  12.7069  19.8442  19.8454

          k =-0.2500 0.2500-0.2500 (   947 PWs)   bands (ev):

    -6.4151   6.7630  11.6089  11.6089  21.1901  21.1911

          k =-0.3750 0.3750-0.3750 (   947 PWs)   bands (ev):

    -4.3492   2.6762  10.8225  10.8225  21.7977  21.7989

          k = 0.5000-0.5000 0.5000 (   960 PWs)   bands (ev):

    -2.3528  -0.0278  10.5485  10.5485  21.8771  21.8771

          k = 0.0000 0.2500 0.0000 (   945 PWs)   bands (ev):

    -7.5539  11.6329  11.6329  12.0346  18.5789  21.2014

          k =-0.1250 0.3750-0.1250 (   955 PWs)   bands (ev):

    -6.5551   8.2671  10.4788  11.3257  19.2395  22.7416

          k =-0.2500 0.5000-0.2500 (   956 PWs)   bands (ev):

    -4.7435   4.2361   9.8274  10.1559  20.4163  23.4926

          k = 0.6250-0.3750 0.6250 (   960 PWs)   bands (ev):

    -2.4100   0.7931   9.2011   9.8244  21.0341  23.2293

          k = 0.5000-0.2500 0.5000 (   958 PWs)   bands (ev):

    -3.1807   1.7986   8.7699  10.4409  21.6206  22.5773

          k = 0.3750-0.1250 0.3750 (   960 PWs)   bands (ev):

    -5.4333   5.5880   8.9884  11.5136  21.5230  22.0509

          k = 0.2500 0.0000 0.2500 (   953 PWs)   bands (ev):

    -6.9822   9.3722  10.1057  12.5994  20.1456  21.4596

          k = 0.0000 0.5000 0.0000 (   982 PWs)   bands (ev):

    -5.8460   8.8399   9.2288   9.2288  17.8499  23.6751

          k =-0.1250 0.6250-0.1250 (   964 PWs)   bands (ev):

    -4.3160   5.8337   8.1299   8.4957  18.5849  22.7666

          k = 0.7500-0.2500 0.7500 (   963 PWs)   bands (ev):

    -2.1081   2.5618   6.6111   8.4697  19.4996  24.8467

          k = 0.6250-0.1250 0.6250 (   965 PWs)   bands (ev):

    -1.4099   1.7601   5.6075   9.1443  20.2697  25.1736

          k = 0.5000 0.0000 0.5000 (   959 PWs)   bands (ev):

    -3.6629   4.6498   5.7439  10.3383  21.3471  23.4056

          k = 0.0000 0.7500 0.0000 (   970 PWs)   bands (ev):

    -3.0764   4.7668   7.6054   7.6054  17.5496  20.1628

          k = 0.8750-0.1250 0.8750 (   967 PWs)   bands (ev):

    -1.1138   2.6786   6.0042   7.4219  18.3973  20.4312

          k = 0.7500 0.0000 0.7500 (   967 PWs)   bands (ev):

     0.3710   1.6155   4.0324   7.9811  19.1019  24.1586

          k = 0.0000-1.0000 0.0000 (   982 PWs)   bands (ev):

     0.5837   0.5837   7.0440   7.0440  18.1856  18.1856

          k =-0.2500 0.5000 0.0000 (   961 PWs)   bands (ev):

    -5.2898   6.8422   7.8512  10.4660  19.9774  23.4470

          k = 0.6250-0.3750 0.8750 (   960 PWs)   bands (ev):

    -3.2642   3.5032   7.0722   9.2697  21.3793  23.0497

          k = 0.5000-0.2500 0.7500 (   960 PWs)   bands (ev):

    -1.3424   0.9831   7.0373   8.6617  21.7183  22.8612

          k = 0.7500-0.2500 1.0000 (   952 PWs)   bands (ev):

    -2.5673   4.3379   6.3552   7.4086  19.7368  22.0259

          k = 0.6250-0.1250 0.8750 (   961 PWs)   bands (ev):

    -0.3734   2.1800   4.9377   7.0002  20.9503  24.3179

          k = 0.5000 0.0000 0.7500 (   962 PWs)   bands (ev):

    -1.1651   2.9424   4.4816   7.8758  21.7892  24.1759

          k =-0.2500-1.0000 0.0000 (   968 PWs)   bands (ev):

     0.9214   0.9214   6.0327   6.0327  20.2945  20.2946

          k =-0.5000-1.0000 0.0000 (   952 PWs)   bands (ev):

     1.3745   1.3745   5.0267   5.0267  24.0426  24.0429

     highest occupied, lowest unoccupied level (ev):    13.3609   17.5496

!    total energy              =     -24.07568806 Ry
     estimated scf accuracy    <       0.00000003 Ry

     The total energy is the sum of the following terms:
     one-electron contribution =       8.24796688 Ry
     hartree contribution      =       1.93215870 Ry
     xc contribution           =      -8.68051135 Ry
     ewald contribution        =     -25.57530229 Ry

     convergence has been achieved in   5 iterations

     Writing all to output data dir output/diamond.save/ :
     XML data file, charge density, pseudopotentials, collected wavefunctions

     init_run     :      0.07s CPU      0.14s WALL (       1 calls)
     electrons    :      0.03s CPU      0.95s WALL (       1 calls)

     Called by init_run:
     wfcinit      :      0.00s CPU      0.07s WALL (       1 calls)
     potinit      :      0.02s CPU      0.02s WALL (       1 calls)
     hinit0       :      0.05s CPU      0.05s WALL (       1 calls)

     Called by electrons:
     c_bands      :      0.01s CPU      0.79s WALL (       5 calls)
     sum_band     :      0.00s CPU      0.12s WALL (       5 calls)
     v_of_rho     :      0.02s CPU      0.04s WALL (       6 calls)
     mix_rho      :      0.00s CPU      0.00s WALL (       5 calls)

     Called by c_bands:
     init_us_2    :      0.00s CPU      0.01s WALL (     319 calls)
     cegterg      :      0.01s CPU      0.73s WALL (     145 calls)

     Called by *egterg:
     cdiaghg      :      0.00s CPU      0.01s WALL (     630 calls)
     h_psi        :      0.01s CPU      0.71s WALL (     659 calls)
     g_psi        :      0.00s CPU      0.00s WALL (     485 calls)

     Called by h_psi:
     h_psi:calbec :      0.00s CPU      0.03s WALL (     659 calls)
     vloc_psi     :      0.01s CPU      0.65s WALL (     659 calls)
     add_vuspsi   :      0.00s CPU      0.02s WALL (     659 calls)

     General routines
     calbec       :      0.00s CPU      0.03s WALL (     659 calls)
     fft          :      0.01s CPU      0.02s WALL (      60 calls)
     ffts         :      0.00s CPU      0.00s WALL (       5 calls)
     fftw         :      0.01s CPU      0.65s WALL (    6484 calls)

     Parallel routines

     PWSCF        :      0.11s CPU      1.18s WALL


   This run was terminated on:  10:22:14  20Nov2025            

=------------------------------------------------------------------------------=
   JOB DONE.
=------------------------------------------------------------------------------=
