
     Program PWSCF v.7.3.1 starts on 27Nov2025 at 12:44:18 

     This program is part of the open-source Quantum ESPRESSO suite
     for quantum simulation of materials; please cite
         "P. Giannozzi et al., J. Phys.:Condens. Matter 21 395502 (2009);
         "P. Giannozzi et al., J. Phys.:Condens. Matter 29 465901 (2017);
         "P. Giannozzi et al., J. Chem. Phys. 152 154105 (2020);
          URL http://www.quantum-espresso.org", 
     in publications or presentations arising from this work. More details at
     http://www.quantum-espresso.org/quote

     Parallel version (MPI), running on     1 processors

     MPI processes distributed on     1 nodes
     2028 MiB available memory on the printing compute node when the environment starts

     Waiting for input...
     Reading input from standard input

     Current dimensions of program PWSCF are:
     Max number of different atomic species (ntypx) = 10
     Max number of k-points (npk) =  40000
     Max angular momentum in pseudopotentials (lmaxx) =  4

     Subspace diagonalization in iterative solution of the eigenvalue problem:
     a serial algorithm will be used


     G-vector sticks info
     --------------------
     sticks:   dense  smooth     PW     G-vecs:    dense   smooth      PW
     Sum         499     499    163                 7239     7239    1291

     Using Slab Decomposition



     bravais-lattice index     =            2
     lattice parameter (alat)  =       6.7500  a.u.
     unit-cell volume          =      76.8867 (a.u.)^3
     number of atoms/cell      =            2
     number of atomic types    =            1
     number of electrons       =         8.00
     number of Kohn-Sham states=            6
     kinetic-energy cutoff     =      78.0000  Ry
     charge density cutoff     =     312.0000  Ry
     scf convergence threshold =      1.0E-06
     mixing beta               =       0.7000
     number of iterations used =            8  plain     mixing
     energy convergence thresh.=      1.0E-04
     force convergence thresh. =      1.0E-03
     press convergence thresh. =      5.0E-01
     Exchange-correlation= PBE
                           (   1   4   3   4   0   0   0)
     nstep                     =           50


     celldm(1)=   6.750000  celldm(2)=   0.000000  celldm(3)=   0.000000
     celldm(4)=   0.000000  celldm(5)=   0.000000  celldm(6)=   0.000000

     crystal axes: (cart. coord. in units of alat)
               a(1) = (  -0.500000   0.000000   0.500000 )  
               a(2) = (   0.000000   0.500000   0.500000 )  
               a(3) = (  -0.500000   0.500000   0.000000 )  

     reciprocal axes: (cart. coord. in units 2 pi/alat)
               b(1) = ( -1.000000 -1.000000  1.000000 )  
               b(2) = (  1.000000  1.000000  1.000000 )  
               b(3) = ( -1.000000  1.000000 -1.000000 )  


     PseudoPot. # 1 for C  read from file:
     ./pseudo/C.upf
     MD5 check sum: 34a24e64c0a39f27c6c36b90a16ac686
     Pseudo is Norm-conserving + core correction, Zval =  4.0
     Generated using ONCVPSP code by D. R. Hamann
     Using radial grid of 1248 points,  4 beta functions with: 
                l(1) =   0
                l(2) =   0
                l(3) =   1
                l(4) =   1

     atomic species   valence    mass     pseudopotential
     C                 4.00    12.01070     C ( 1.00)

      6 Sym. Ops. (no inversion) found



   Cartesian axes

     site n.     atom                  positions (alat units)
         1        C      tau(   1) = (   0.0000000   0.0000000   0.0000000  )
         2        C      tau(   2) = (   0.2400000   0.2400000   0.2400000  )

     number of k points=    65
                       cart. coord. in units 2pi/alat
        k(    1) = (   0.0000000   0.0000000   0.0000000), wk =   0.0039062
        k(    2) = (  -0.1250000   0.1250000  -0.1250000), wk =   0.0234375
        k(    3) = (  -0.2500000   0.2500000  -0.2500000), wk =   0.0234375
        k(    4) = (  -0.3750000   0.3750000  -0.3750000), wk =   0.0234375
        k(    5) = (   0.5000000  -0.5000000   0.5000000), wk =   0.0117188
        k(    6) = (   0.0000000   0.2500000   0.0000000), wk =   0.0234375
        k(    7) = (  -0.1250000   0.3750000  -0.1250000), wk =   0.0234375
        k(    8) = (  -0.2500000   0.5000000  -0.2500000), wk =   0.0234375
        k(    9) = (   0.6250000  -0.3750000   0.6250000), wk =   0.0234375
        k(   10) = (   0.5000000  -0.2500000   0.5000000), wk =   0.0234375
        k(   11) = (   0.3750000  -0.1250000   0.3750000), wk =   0.0234375
        k(   12) = (   0.2500000   0.0000000   0.2500000), wk =   0.0234375
        k(   13) = (   0.0000000   0.5000000   0.0000000), wk =   0.0234375
        k(   14) = (  -0.1250000   0.6250000  -0.1250000), wk =   0.0234375
        k(   15) = (   0.7500000  -0.2500000   0.7500000), wk =   0.0234375
        k(   16) = (   0.6250000  -0.1250000   0.6250000), wk =   0.0234375
        k(   17) = (   0.5000000   0.0000000   0.5000000), wk =   0.0234375
        k(   18) = (   0.0000000   0.7500000   0.0000000), wk =   0.0234375
        k(   19) = (   0.8750000  -0.1250000   0.8750000), wk =   0.0234375
        k(   20) = (   0.7500000   0.0000000   0.7500000), wk =   0.0234375
        k(   21) = (   0.0000000  -1.0000000   0.0000000), wk =   0.0117188
        k(   22) = (  -0.2500000   0.5000000   0.0000000), wk =   0.0468750
        k(   23) = (   0.6250000  -0.3750000   0.8750000), wk =   0.0468750
        k(   24) = (   0.5000000  -0.2500000   0.7500000), wk =   0.0468750
        k(   25) = (   0.7500000  -0.2500000   1.0000000), wk =   0.0468750
        k(   26) = (   0.6250000  -0.1250000   0.8750000), wk =   0.0468750
        k(   27) = (   0.5000000   0.0000000   0.7500000), wk =   0.0468750
        k(   28) = (  -0.2500000  -1.0000000   0.0000000), wk =   0.0468750
        k(   29) = (  -0.5000000  -1.0000000   0.0000000), wk =   0.0234375
        k(   30) = (  -0.1250000  -0.1250000  -0.1250000), wk =   0.0078125
        k(   31) = (  -0.2500000  -0.2500000  -0.2500000), wk =   0.0078125
        k(   32) = (  -0.3750000  -0.3750000  -0.3750000), wk =   0.0078125
        k(   33) = (   0.5000000   0.5000000   0.5000000), wk =   0.0039062
        k(   34) = (   0.3750000   0.1250000  -0.1250000), wk =   0.0468750
        k(   35) = (  -0.3750000  -0.1250000  -0.1250000), wk =   0.0234375
        k(   36) = (   0.5000000   0.2500000  -0.2500000), wk =   0.0468750
        k(   37) = (  -0.5000000  -0.2500000  -0.2500000), wk =   0.0234375
        k(   38) = (  -0.3750000  -0.6250000   0.6250000), wk =   0.0468750
        k(   39) = (   0.3750000   0.6250000   0.6250000), wk =   0.0234375
        k(   40) = (  -0.2500000  -0.5000000   0.5000000), wk =   0.0468750
        k(   41) = (   0.2500000   0.5000000   0.5000000), wk =   0.0234375
        k(   42) = (  -0.1250000  -0.3750000   0.3750000), wk =   0.0468750
        k(   43) = (   0.1250000   0.3750000   0.3750000), wk =   0.0234375
        k(   44) = (   0.0000000  -0.2500000   0.2500000), wk =   0.0234375
        k(   45) = (   0.6250000   0.1250000  -0.1250000), wk =   0.0468750
        k(   46) = (  -0.6250000  -0.1250000  -0.1250000), wk =   0.0234375
        k(   47) = (  -0.2500000  -0.7500000   0.7500000), wk =   0.0468750
        k(   48) = (   0.2500000   0.7500000   0.7500000), wk =   0.0234375
        k(   49) = (  -0.1250000  -0.6250000   0.6250000), wk =   0.0468750
        k(   50) = (   0.1250000   0.6250000   0.6250000), wk =   0.0234375
        k(   51) = (   0.0000000  -0.5000000   0.5000000), wk =   0.0234375
        k(   52) = (  -0.1250000  -0.8750000   0.8750000), wk =   0.0468750
        k(   53) = (   0.1250000   0.8750000   0.8750000), wk =   0.0234375
        k(   54) = (   0.0000000  -0.7500000   0.7500000), wk =   0.0234375
        k(   55) = (   0.5000000   0.2500000   0.0000000), wk =   0.0468750
        k(   56) = (  -0.3750000  -0.6250000   0.8750000), wk =   0.0468750
        k(   57) = (   0.3750000   0.6250000   0.8750000), wk =   0.0468750
        k(   58) = (  -0.8750000  -0.3750000   0.6250000), wk =   0.0468750
        k(   59) = (   0.2500000   0.5000000   0.7500000), wk =   0.0234375
        k(   60) = (  -0.7500000  -0.2500000   0.5000000), wk =   0.0234375
        k(   61) = (  -0.2500000  -0.7500000   1.0000000), wk =   0.0468750
        k(   62) = (  -0.1250000  -0.6250000   0.8750000), wk =   0.0468750
        k(   63) = (   0.1250000   0.6250000   0.8750000), wk =   0.0468750
        k(   64) = (  -0.8750000  -0.1250000   0.6250000), wk =   0.0468750
        k(   65) = (   0.0000000  -0.5000000   0.7500000), wk =   0.0468750

     Dense  grid:     7239 G-vectors     FFT dimensions: (  27,  27,  27)

     Estimated max dynamical RAM per process >      11.13 MB

     Initial potential from superposition of free atoms

     starting charge       7.9999, renormalised to       8.0000
     Starting wfcs are    8 randomized atomic wfcs

     total cpu time spent up to now is        0.3 secs

     Self-consistent Calculation

     iteration #  1     ecut=    78.00 Ry     beta= 0.70
     Davidson diagonalization with overlap
     ethr =  1.00E-02,  avg # of iterations =  3.1

     total cpu time spent up to now is        0.7 secs

     total energy              =     -24.06306956 Ry
     estimated scf accuracy    <       0.10996310 Ry

     iteration #  2     ecut=    78.00 Ry     beta= 0.70
     Davidson diagonalization with overlap
     ethr =  1.37E-03,  avg # of iterations =  1.4

     total cpu time spent up to now is        0.9 secs

     total energy              =     -24.06918212 Ry
     estimated scf accuracy    <       0.00312604 Ry

     iteration #  3     ecut=    78.00 Ry     beta= 0.70
     Davidson diagonalization with overlap
     ethr =  3.91E-05,  avg # of iterations =  5.1

     total cpu time spent up to now is        1.3 secs

     total energy              =     -24.06998407 Ry
     estimated scf accuracy    <       0.00008213 Ry

     iteration #  4     ecut=    78.00 Ry     beta= 0.70
     Davidson diagonalization with overlap
     c_bands:  1 eigenvalues not converged
     ethr =  1.03E-06,  avg # of iterations =  5.3

     total cpu time spent up to now is        1.7 secs

     total energy              =     -24.07001073 Ry
     estimated scf accuracy    <       0.00000717 Ry

     iteration #  5     ecut=    78.00 Ry     beta= 0.70
     Davidson diagonalization with overlap
     c_bands:  1 eigenvalues not converged
     ethr =  8.96E-08,  avg # of iterations =  2.1

     total cpu time spent up to now is        2.0 secs

     End of self-consistent calculation

          k = 0.0000 0.0000 0.0000 (   893 PWs)   bands (ev):

    -8.1595  12.1982  13.8444  13.8444  18.3721  18.3722

          k =-0.1250 0.1250-0.1250 (   911 PWs)   bands (ev):

    -7.7291  10.8826  12.0402  13.1584  19.1688  19.6476

          k =-0.2500 0.2500-0.2500 (   896 PWs)   bands (ev):

    -6.4521   6.7928  10.8915  12.0609  20.2827  20.9648

          k =-0.3750 0.3750-0.3750 (   893 PWs)   bands (ev):

    -4.4039   2.7139  10.1352  11.2963  20.6891  21.5974

          k = 0.5000-0.5000 0.5000 (   886 PWs)   bands (ev):

    -2.4831   0.0817   9.8695  11.0330  20.7100  21.7607

          k = 0.0000 0.2500 0.0000 (   897 PWs)   bands (ev):

    -7.5861  10.8337  11.8871  12.3326  18.3127  20.7992

          k =-0.1250 0.3750-0.1250 (   894 PWs)   bands (ev):

    -6.5911   8.3872  10.5906  10.7511  19.1817  22.1817

          k =-0.2500 0.5000-0.2500 (   892 PWs)   bands (ev):

    -4.7925   4.3150   9.4961  10.1400  20.5063  22.5981

          k = 0.6250-0.3750 0.6250 (   892 PWs)   bands (ev):

    -2.5166   0.8913   8.6196  10.1811  21.1947  22.2026

          k = 0.5000-0.2500 0.5000 (   889 PWs)   bands (ev):

    -3.2502   1.8356   8.2456  10.8355  21.5459  21.6946

          k = 0.3750-0.1250 0.3750 (   896 PWs)   bands (ev):

    -5.4756   5.5536   8.5250  11.9288  20.6491  21.9197

          k = 0.2500 0.0000 0.2500 (   903 PWs)   bands (ev):

    -7.0174   8.8136  10.1619  12.9965  19.5440  21.2896

          k = 0.0000 0.5000 0.0000 (   881 PWs)   bands (ev):

    -5.8855   8.3253   9.3745   9.3774  17.6765  23.3919

          k =-0.1250 0.6250-0.1250 (   887 PWs)   bands (ev):

    -4.3660   6.1014   7.4355   8.6729  18.6007  22.3913

          k = 0.7500-0.2500 0.7500 (   892 PWs)   bands (ev):

    -2.1974   2.7261   6.0848   8.6737  19.6549  24.1759

          k = 0.6250-0.1250 0.6250 (   890 PWs)   bands (ev):

    -1.4996   1.8223   5.2172   9.3692  20.4001  24.3769

          k = 0.5000 0.0000 0.5000 (   889 PWs)   bands (ev):

    -3.7062   4.3024   5.7356  10.5694  21.4276  22.8284

          k = 0.0000 0.7500 0.0000 (   886 PWs)   bands (ev):

    -3.1304   4.6374   7.4349   7.7198  17.3863  20.0248

          k = 0.8750-0.1250 0.8750 (   899 PWs)   bands (ev):

    -1.2023   2.7247   5.6757   7.5495  18.4949  20.0268

          k = 0.7500 0.0000 0.7500 (   890 PWs)   bands (ev):

     0.4085   1.3738   3.8905   8.1139  19.1941  23.7161

          k = 0.0000-1.0000 0.0000 (   934 PWs)   bands (ev):

     0.3395   0.6807   6.8532   7.1497  17.8191  18.2677

          k =-0.2500 0.5000 0.0000 (   893 PWs)   bands (ev):

    -5.3330   7.0703   7.6607  10.1353  19.8256  23.2393

          k = 0.6250-0.3750 0.8750 (   892 PWs)   bands (ev):

    -3.3306   3.6244   6.8754   9.1226  21.4918  22.4789

          k = 0.5000-0.2500 0.7500 (   890 PWs)   bands (ev):

    -1.4830   1.1100   6.6658   8.8204  21.6807  22.4107

          k = 0.7500-0.2500 1.0000 (   896 PWs)   bands (ev):

    -2.6359   4.4517   6.2002   7.2502  19.6095  21.7800

          k = 0.6250-0.1250 0.8750 (   895 PWs)   bands (ev):

    -0.5109   2.3783   4.4984   7.1464  21.1136  23.5110

          k = 0.5000 0.0000 0.7500 (   895 PWs)   bands (ev):

    -1.1943   2.6471   4.4324   8.0473  21.9140  23.7596

          k =-0.2500-1.0000 0.0000 (   896 PWs)   bands (ev):

     0.6462   1.0413   5.8284   6.1612  19.8785  20.3903

          k =-0.5000-1.0000 0.0000 (   892 PWs)   bands (ev):

     1.0403   1.5438   4.7836   5.2051  23.2497  24.2761

          k =-0.1250-0.1250-0.1250 (   911 PWs)   bands (ev):

    -7.7300  10.1851  13.0122  13.0122  19.4560  19.4561

          k =-0.2500-0.2500-0.2500 (   896 PWs)   bands (ev):

    -6.4528   6.2982  11.7485  11.7485  21.0920  21.0921

          k =-0.3750-0.3750-0.3750 (   893 PWs)   bands (ev):

    -4.3778   2.3224  10.8858  10.8858  21.8760  21.8772

          k = 0.5000 0.5000 0.5000 (   886 PWs)   bands (ev):

    -2.2042  -0.5251  10.5899  10.5899  22.0027  22.0038

          k = 0.3750 0.1250-0.1250 (   894 PWs)   bands (ev):

    -6.5915   8.2385  10.0383  11.5817  18.9027  22.3475

          k =-0.3750-0.1250-0.1250 (   894 PWs)   bands (ev):

    -6.5922   7.6977  10.6051  11.6138  19.0211  22.6927

          k = 0.5000 0.2500-0.2500 (   892 PWs)   bands (ev):

    -4.7914   4.2489   9.2993  10.4940  19.8555  23.0775

          k =-0.5000-0.2500-0.2500 (   892 PWs)   bands (ev):

    -4.7807   3.8430   9.8974  10.2924  20.3910  23.4283

          k =-0.3750-0.6250 0.6250 (   892 PWs)   bands (ev):

    -2.5123   0.8684   8.9482   9.8668  20.3396  23.2633

          k = 0.3750 0.6250 0.6250 (   892 PWs)   bands (ev):

    -2.3494   0.3667   9.2674   9.8849  21.1091  23.2949

          k =-0.2500-0.5000 0.5000 (   889 PWs)   bands (ev):

    -3.2557   1.8607   8.7250  10.2168  20.8071  23.0653

          k = 0.2500 0.5000 0.5000 (   889 PWs)   bands (ev):

    -3.1860   1.4262   8.8207  10.5379  21.7072  22.5381

          k =-0.1250-0.3750 0.3750 (   896 PWs)   bands (ev):

    -5.4760   5.6530   8.9568  11.1743  20.9099  22.4047

          k = 0.1250 0.3750 0.3750 (   896 PWs)   bands (ev):

    -5.4727   5.1530   9.0701  11.7145  21.2405  22.0503

          k = 0.0000-0.2500 0.2500 (   903 PWs)   bands (ev):

    -7.0161   9.6621   9.8276  12.2196  20.0323  20.8730

          k = 0.6250 0.1250-0.1250 (   887 PWs)   bands (ev):

    -4.3641   5.7516   7.9565   8.5584  18.2944  22.6783

          k =-0.6250-0.1250-0.1250 (   887 PWs)   bands (ev):

    -4.3588   5.3463   8.3592   8.5898  18.4487  22.5507

          k =-0.2500-0.7500 0.7500 (   892 PWs)   bands (ev):

    -2.1881   2.5767   6.6158   8.2868  19.0606  24.8098

          k = 0.2500 0.7500 0.7500 (   892 PWs)   bands (ev):

    -2.1108   2.1355   6.7402   8.5564  19.5284  24.4700

          k =-0.1250-0.6250 0.6250 (   890 PWs)   bands (ev):

    -1.5344   1.8646   5.6097   8.8895  19.7808  25.6618

          k = 0.1250 0.6250 0.6250 (   890 PWs)   bands (ev):

    -1.3537   1.2943   5.6882   9.2695  20.3551  24.9028

          k = 0.0000-0.5000 0.5000 (   889 PWs)   bands (ev):

    -3.7229   4.8335   5.6200  10.0193  20.7299  24.0992

          k =-0.1250-0.8750 0.8750 (   899 PWs)   bands (ev):

    -1.1909   2.5975   6.1189   7.2292  18.0494  20.4692

          k = 0.1250 0.8750 0.8750 (   899 PWs)   bands (ev):

    -1.1525   2.4526   5.9493   7.5231  18.3712  20.1615

          k = 0.0000-0.7500 0.7500 (   890 PWs)   bands (ev):

     0.1395   1.7350   4.1163   7.7603  18.6960  24.1625

          k = 0.5000 0.2500 0.0000 (   893 PWs)   bands (ev):

    -5.3313   6.4060   7.8654  10.7562  19.6454  23.4473

          k =-0.3750-0.6250 0.8750 (   892 PWs)   bands (ev):

    -3.3195   3.4796   6.6810   9.5580  20.9088  23.0782

          k = 0.3750 0.6250 0.8750 (   892 PWs)   bands (ev):

    -3.2949   3.0975   7.1524   9.4238  21.2644  23.1848

          k =-0.8750-0.3750 0.6250 (   892 PWs)   bands (ev):

    -3.3289   3.5426   7.2061   8.8674  20.6488  23.5053

          k = 0.2500 0.5000 0.7500 (   890 PWs)   bands (ev):

    -1.1820   0.4319   7.1096   8.7665  21.7434  22.9249

          k =-0.7500-0.2500 0.5000 (   890 PWs)   bands (ev):

    -1.4882   1.0912   7.3739   8.0842  20.6700  23.6327

          k =-0.2500-0.7500 1.0000 (   896 PWs)   bands (ev):

    -2.6149   4.0243   6.3355   7.5816  19.4632  21.9839

          k =-0.1250-0.6250 0.8750 (   895 PWs)   bands (ev):

    -0.4832   2.1846   4.8530   6.9617  20.5268  24.3780

          k = 0.1250 0.6250 0.8750 (   895 PWs)   bands (ev):

    -0.3018   1.6918   5.0183   7.1254  20.9707  24.0410

          k =-0.8750-0.1250 0.6250 (   895 PWs)   bands (ev):

    -0.5206   2.2410   5.1402   6.6270  20.4309  24.4629

          k = 0.0000-0.5000 0.7500 (   895 PWs)   bands (ev):

    -1.2815   3.0938   4.4271   7.6298  21.1772  24.5307

     highest occupied, lowest unoccupied level (ev):    13.8444   17.3863

!    total energy              =     -24.07001161 Ry
     estimated scf accuracy    <       0.00000007 Ry

     The total energy is the sum of the following terms:
     one-electron contribution =       8.18729964 Ry
     hartree contribution      =       1.94072802 Ry
     xc contribution           =      -8.67402602 Ry
     ewald contribution        =     -25.52401324 Ry

     convergence has been achieved in   5 iterations

     Forces acting on atoms (cartesian axes, Ry/au):

     atom    1 type  1   force =    -0.05698621   -0.05698621   -0.05698621
     atom    2 type  1   force =     0.05698621    0.05698621    0.05698621

     Total force =     0.139587     Total SCF correction =     0.000084


     Computing stress (Cartesian axis) and pressure

          total   stress  (Ry/bohr**3)                   (kbar)     P=       11.74
   0.00007978   0.00015375   0.00015375           11.74       22.62       22.62
   0.00015375   0.00007978   0.00015375           22.62       11.74       22.62
   0.00015375   0.00015375   0.00007978           22.62       22.62       11.74


     BFGS Geometry Optimization
     Energy error            =      2.0E-02 Ry
     Gradient error          =      5.7E-02 Ry/Bohr
     Cell gradient error     =      2.3E+01 kbar

     number of scf cycles    =   1
     number of bfgs steps    =   0

     enthalpy           new  =     -24.0700116080 Ry

     new trust radius        =       0.0987030034 bohr
     new conv_thr            =       0.0000010000 Ry

     new unit-cell volume =     77.34430 a.u.^3 (    11.46124 Ang^3 )
     density =      3.48029 g/cm^3

CELL_PARAMETERS (alat=  6.75000000)
  -0.499075415   0.000000000   0.499075415
   0.003843760   0.502919176   0.502919176
  -0.499075415   0.499075415  -0.000000000

ATOMIC_POSITIONS (alat)
C               -0.0085241411       -0.0085241411       -0.0085241411
C                0.2508478480        0.2508478480        0.2508478480



     Writing config-only to output data dir ./output/diamond.save/ :
     XML data file
     NEW-OLD atomic charge density approx. for the potential
     New effective cutoffs (rho, wfc):  312.98   78.24

     total cpu time spent up to now is        2.1 secs

     Self-consistent Calculation

     iteration #  1     ecut=    78.00 Ry     beta= 0.70
     Davidson diagonalization with overlap
     c_bands:  1 eigenvalues not converged
     c_bands:  1 eigenvalues not converged
     c_bands:  1 eigenvalues not converged
     c_bands:  1 eigenvalues not converged
     c_bands:  1 eigenvalues not converged
     c_bands:  1 eigenvalues not converged
     c_bands:  1 eigenvalues not converged
     c_bands:  1 eigenvalues not converged
     ethr =  1.00E-06,  avg # of iterations = 13.3

     total cpu time spent up to now is        3.1 secs

     total energy              =     -24.07272620 Ry
     estimated scf accuracy    <       0.00209946 Ry

     iteration #  2     ecut=    78.00 Ry     beta= 0.70
     Davidson diagonalization with overlap
     ethr =  2.62E-05,  avg # of iterations =  1.8

     total cpu time spent up to now is        3.3 secs

     total energy              =     -24.07293261 Ry
     estimated scf accuracy    <       0.00004626 Ry

     iteration #  3     ecut=    78.00 Ry     beta= 0.70
     Davidson diagonalization with overlap
     c_bands:  1 eigenvalues not converged
     ethr =  5.78E-07,  avg # of iterations =  3.3

     total cpu time spent up to now is        3.6 secs

     total energy              =     -24.07294207 Ry
     estimated scf accuracy    <       0.00000256 Ry

     iteration #  4     ecut=    78.00 Ry     beta= 0.70
     Davidson diagonalization with overlap
     ethr =  3.20E-08,  avg # of iterations =  2.5

     total cpu time spent up to now is        3.9 secs

     End of self-consistent calculation

          k = 0.0000 0.0000 0.0000 (   893 PWs)   bands (ev):

    -8.1857  12.8039  12.8039  13.9303  19.2011  19.2011

          k =-0.1248 0.1257-0.1248 (   911 PWs)   bands (ev):

    -7.7550  10.6117  12.1643  13.0802  18.7914  20.1036

          k =-0.2495 0.2514-0.2495 (   896 PWs)   bands (ev):

    -6.4754   6.5553  11.0609  11.8826  20.0676  21.4801

          k =-0.3743 0.3771-0.3743 (   893 PWs)   bands (ev):

    -4.4102   2.5156  10.2562  11.0792  20.6017  21.9561

          k = 0.4990-0.5028 0.4990 (   886 PWs)   bands (ev):

    -2.3788  -0.2107   9.9738  10.8056  20.6740  22.0651

          k =-0.0010 0.2495-0.0010 (   897 PWs)   bands (ev):

    -7.6146  11.2563  11.3097  12.1738  18.2391  20.8157

          k =-0.1257 0.3752-0.1257 (   894 PWs)   bands (ev):

    -6.6120   7.9120  10.0913  11.7004  18.6636  22.1837

          k =-0.2505 0.5009-0.2505 (   892 PWs)   bands (ev):

    -4.7959   3.9826   9.4041  10.4403  19.8176  22.7804

          k = 0.6228-0.3790 0.6228 (   892 PWs)   bands (ev):

    -2.4415   0.5782   9.3592   9.3903  20.4783  22.9748

          k = 0.4981-0.2533 0.4981 (   889 PWs)   bands (ev):

    -3.2689   1.6691   8.8765   9.9392  21.1278  22.8847

          k = 0.3733-0.1276 0.3733 (   896 PWs)   bands (ev):

    -5.5188   5.4655   9.0229  10.9918  21.6547  21.9065

          k = 0.2486-0.0019 0.2486 (   903 PWs)   bands (ev):

    -7.0570   9.3887   9.9163  12.0933  20.3430  20.8265

          k =-0.0019 0.4990-0.0019 (   881 PWs)   bands (ev):

    -5.9207   8.4714   8.9771   9.3537  17.6042  23.2378

          k =-0.1267 0.6247-0.1267 (   887 PWs)   bands (ev):

    -4.3797   5.3878   8.2190   8.4581  18.2059  22.4040

          k = 0.7466-0.2552 0.7466 (   892 PWs)   bands (ev):

    -2.1524   2.2125   6.8220   8.1629  19.1669  24.2125

          k = 0.6219-0.1295 0.6219 (   890 PWs)   bands (ev):

    -1.5468   1.6033   5.6845   8.8080  19.9719  25.4234

          k = 0.4971-0.0038 0.4971 (   889 PWs)   bands (ev):

    -3.8064   4.6855   5.5959   9.9838  21.0630  23.5359

          k =-0.0029 0.7485-0.0029 (   886 PWs)   bands (ev):

    -3.1761   4.5773   7.4077   7.5669  17.3166  19.9093

          k = 0.8704-0.1314 0.8704 (   899 PWs)   bands (ev):

    -1.1893   2.3667   6.1164   7.2098  18.1447  20.1253

          k = 0.7457-0.0057 0.7457 (   890 PWs)   bands (ev):

     0.0426   1.6372   4.0527   7.7555  18.8915  23.6964

          k = 0.0038-0.9980 0.0038 (   934 PWs)   bands (ev):

     0.3224   0.5768   6.8618   6.9859  17.8916  18.0111

          k =-0.2514 0.5000-0.0010 (   893 PWs)   bands (ev):

    -5.3489   6.4601   7.7135  10.6005  19.4487  23.2442

          k = 0.6219-0.3800 0.8723 (   892 PWs)   bands (ev):

    -3.3120   3.2016   6.9694   9.2611  20.7359  23.1789

          k = 0.4971-0.2543 0.7476 (   890 PWs)   bands (ev):

    -1.3878   0.7593   7.0554   8.3867  21.1427  23.0214

          k = 0.7457-0.2562 0.9961 (   896 PWs)   bands (ev):

    -2.6342   3.9804   6.2151   7.5045  19.3516  21.8062

          k = 0.6209-0.1305 0.8714 (   895 PWs)   bands (ev):

    -0.4224   1.7979   5.1234   6.7534  20.6292  24.0305

          k = 0.4962-0.0048 0.7466 (   895 PWs)   bands (ev):

    -1.3882   2.9830   4.4083   7.5972  21.4910  24.1059

          k =-0.2457-0.9971 0.0048 (   896 PWs)   bands (ev):

     0.6150   0.9461   5.8272   6.0225  19.9382  20.1330

          k =-0.4952-0.9961 0.0057 (   892 PWs)   bands (ev):

     0.9908   1.4583   4.7678   5.0970  23.3884  24.0202

          k =-0.1238-0.1238-0.1238 (   911 PWs)   bands (ev):

    -7.7641  11.0794  12.2789  12.2789  19.8889  19.8889

          k =-0.2476-0.2476-0.2476 (   896 PWs)   bands (ev):

    -6.5153   6.7455  11.3360  11.3360  21.0001  21.0001

          k =-0.3714-0.3714-0.3714 (   893 PWs)   bands (ev):

    -4.5279   2.6869  10.6322  10.6322  21.5017  21.5019

          k = 0.4952 0.4952 0.4952 (   886 PWs)   bands (ev):

    -2.7533   0.1943  10.3834  10.3834  21.5650  21.5650

          k = 0.3743 0.1238-0.1267 (   894 PWs)   bands (ev):

    -6.6215   8.0589  10.3313  11.1439  18.9604  22.3986

          k =-0.3733-0.1228-0.1228 (   894 PWs)   bands (ev):

    -6.6411   8.3164  10.2369  10.9096  19.1137  22.6182

          k = 0.4990 0.2486-0.2524 (   892 PWs)   bands (ev):

    -4.8161   4.0894   9.4997  10.1340  20.0970  23.1445

          k =-0.4971-0.2466-0.2466 (   892 PWs)   bands (ev):

    -4.8880   4.2420   9.6497   9.8850  20.2200  23.1856

          k =-0.3743-0.6247 0.6276 (   892 PWs)   bands (ev):

    -2.4643   0.6356   8.7792   9.9375  20.6107  22.9496

          k = 0.3695 0.6200 0.6200 (   892 PWs)   bands (ev):

    -2.7339   0.9510   9.0145   9.6522  20.7949  22.9367

          k =-0.2495-0.5000 0.5019 (   889 PWs)   bands (ev):

    -3.2276   1.6126   8.4301  10.5412  20.8766  22.5363

          k = 0.2457 0.4962 0.4962 (   889 PWs)   bands (ev):

    -3.4147   1.8706   8.6114  10.2187  21.3528  22.3641

          k =-0.1248-0.3752 0.3762 (   896 PWs)   bands (ev):

    -5.4887   5.3487   8.7120  11.6521  20.4211  22.2327

          k = 0.1219 0.3724 0.3724 (   896 PWs)   bands (ev):

    -5.5525   5.5903   8.8013  11.1770  21.4739  21.7989

          k = 0.0000-0.2505 0.2505 (   903 PWs)   bands (ev):

    -7.0382   8.9581   9.9335  12.8198  19.2099  21.5556

          k = 0.6238 0.1228-0.1276 (   887 PWs)   bands (ev):

    -4.4010   5.6810   7.7811   8.5350  18.3422  22.4890

          k =-0.6228-0.1219-0.1219 (   887 PWs)   bands (ev):

    -4.4364   5.9297   7.7428   8.3107  18.4341  22.4430

          k =-0.2495-0.7504 0.7523 (   892 PWs)   bands (ev):

    -2.1936   2.4293   6.3213   8.4673  19.2249  24.6389

          k = 0.2438 0.7447 0.7447 (   892 PWs)   bands (ev):

    -2.3486   2.6936   6.3607   8.2904  19.3200  24.3949

          k =-0.1248-0.6257 0.6266 (   890 PWs)   bands (ev):

    -1.4341   1.5296   5.3780   9.1587  19.9580  24.6622

          k = 0.1200 0.6209 0.6209 (   890 PWs)   bands (ev):

    -1.7318   1.9556   5.4308   8.9111  20.0432  25.0699

          k = 0.0000-0.5009 0.5009 (   889 PWs)   bands (ev):

    -3.7117   4.3216   5.6220  10.4012  20.8402  23.0652

          k =-0.1248-0.8761 0.8771 (   899 PWs)   bands (ev):

    -1.2263   2.5321   5.8032   7.3756  18.1208  20.2326

          k = 0.1181 0.8695 0.8695 (   899 PWs)   bands (ev):

    -1.3020   2.6658   5.8588   7.2401  18.2412  20.1057

          k = 0.0000-0.7514 0.7514 (   890 PWs)   bands (ev):

     0.3889   1.3371   3.8386   7.9511  18.8142  23.9760

          k = 0.4981 0.2476-0.0029 (   893 PWs)   bands (ev):

    -5.3905   6.8856   7.6705  10.0488  19.8868  23.1104

          k =-0.3752-0.6257 0.8771 (   892 PWs)   bands (ev):

    -3.3793   3.3989   7.1133   8.8502  21.1466  22.8956

          k = 0.3685 0.6190 0.8695 (   892 PWs)   bands (ev):

    -3.4452   3.5690   6.8912   8.9983  21.2379  22.7202

          k =-0.8742-0.3733 0.6285 (   892 PWs)   bands (ev):

    -3.3223   3.3227   6.6870   9.4382  20.8973  22.7554

          k = 0.2447 0.4952 0.7457 (   890 PWs)   bands (ev):

    -1.7470   1.2455   6.8567   8.4564  21.5151  22.6196

          k =-0.7495-0.2486 0.5028 (   890 PWs)   bands (ev):

    -1.3620   0.7910   6.5465   8.9073  21.6327  22.0723

          k =-0.2505-0.7514 1.0019 (   896 PWs)   bands (ev):

    -2.7126   4.3602   6.2215   7.1083  19.5874  21.6951

          k =-0.1257-0.6266 0.8761 (   895 PWs)   bands (ev):

    -0.5048   2.0429   4.8356   6.8618  20.6530  24.0922

          k = 0.1190 0.6200 0.8704 (   895 PWs)   bands (ev):

    -0.7100   2.4105   4.7352   6.7908  20.7676  23.8343

          k =-0.8752-0.1238 0.6276 (   895 PWs)   bands (ev):

    -0.4098   1.9694   4.5812   7.1364  20.6165  23.9965

          k =-0.0010-0.5019 0.7504 (   895 PWs)   bands (ev):

    -1.1969   2.6226   4.3346   7.9090  21.4161  23.8475

     highest occupied, lowest unoccupied level (ev):    13.9303   17.3166

!    total energy              =     -24.07294258 Ry
     estimated scf accuracy    <          3.1E-09 Ry

     The total energy is the sum of the following terms:
     one-electron contribution =       8.11568311 Ry
     hartree contribution      =       1.94901678 Ry
     xc contribution           =      -8.66414789 Ry
     ewald contribution        =     -25.47349458 Ry

     convergence has been achieved in   4 iterations

     Forces acting on atoms (cartesian axes, Ry/au):

     atom    1 type  1   force =     0.03175749    0.03175749    0.03175749
     atom    2 type  1   force =    -0.03175749   -0.03175749   -0.03175749

     Total force =     0.077790     Total SCF correction =     0.000057


     Computing stress (Cartesian axis) and pressure

          total   stress  (Ry/bohr**3)                   (kbar)     P=      -18.58
  -0.00012634  -0.00029174  -0.00029174          -18.58      -42.92      -42.92
  -0.00029174  -0.00012634  -0.00029174          -42.92      -18.58      -42.92
  -0.00029174  -0.00029174  -0.00012634          -42.92      -42.92      -18.58

     Energy error            =      2.9E-03 Ry
     Gradient error          =      3.2E-02 Ry/Bohr
     Cell gradient error     =      4.3E+01 kbar

     number of scf cycles    =   2
     number of bfgs steps    =   1

     enthalpy           old  =     -24.0700116080 Ry
     enthalpy           new  =     -24.0729425775 Ry

     CASE: enthalpy          _new < enthalpy          _old

     new trust radius        =       0.0343971918 bohr
     new conv_thr            =       0.0000002931 Ry

     new unit-cell volume =     76.89750 a.u.^3 (    11.39503 Ang^3 )
     density =      3.50051 g/cm^3

CELL_PARAMETERS (alat=  6.75000000)
  -0.500382301  -0.000000000   0.500382301
  -0.000717357   0.499664944   0.499664944
  -0.500382301   0.500382301  -0.000000000

ATOMIC_POSITIONS (alat)
C               -0.0055208350       -0.0055208350       -0.0055208350
C                0.2451878423        0.2451878423        0.2451878423



     Writing config-only to output data dir ./output/diamond.save/ :
     XML data file
     NEW-OLD atomic charge density approx. for the potential
     New effective cutoffs (rho, wfc):  312.73   78.18

     total cpu time spent up to now is        4.0 secs

     Self-consistent Calculation

     iteration #  1     ecut=    78.00 Ry     beta= 0.70
     Davidson diagonalization with overlap
     c_bands:  1 eigenvalues not converged
     ethr =  1.00E-06,  avg # of iterations = 10.0

     total cpu time spent up to now is        4.7 secs

     total energy              =     -24.07548501 Ry
     estimated scf accuracy    <       0.00037133 Ry

     iteration #  2     ecut=    78.00 Ry     beta= 0.70
     Davidson diagonalization with overlap
     ethr =  4.64E-06,  avg # of iterations =  1.7

     total cpu time spent up to now is        5.0 secs

     total energy              =     -24.07552166 Ry
     estimated scf accuracy    <       0.00000816 Ry

     iteration #  3     ecut=    78.00 Ry     beta= 0.70
     Davidson diagonalization with overlap
     ethr =  1.02E-07,  avg # of iterations =  2.2

     total cpu time spent up to now is        5.2 secs

     total energy              =     -24.07552342 Ry
     estimated scf accuracy    <       0.00000044 Ry

     iteration #  4     ecut=    78.00 Ry     beta= 0.70
     Davidson diagonalization with overlap
     ethr =  5.45E-09,  avg # of iterations =  2.7

     total cpu time spent up to now is        5.5 secs

     End of self-consistent calculation

          k = 0.0000 0.0000 0.0000 (   893 PWs)   bands (ev):

    -8.1508  13.2204  13.2204  13.3938  18.9194  18.9194

          k =-0.1250 0.1248-0.1250 (   911 PWs)   bands (ev):

    -7.7207  10.8409  12.5741  12.7129  19.6954  19.7796

          k =-0.2500 0.2496-0.2500 (   896 PWs)   bands (ev):

    -6.4437   6.6812  11.4852  11.6083  21.0267  21.4433

          k =-0.3750 0.3744-0.3750 (   893 PWs)   bands (ev):

    -4.3873   2.6136  10.7036  10.8204  21.6251  21.9845

          k = 0.5000-0.4993 0.5000 (   886 PWs)   bands (ev):

    -2.4041  -0.0740  10.4311  10.5463  21.7039  22.1309

          k = 0.0002 0.2500 0.0002 (   897 PWs)   bands (ev):

    -7.5769  11.5156  11.5898  11.9634  18.4824  21.0775

          k =-0.1248 0.3748-0.1248 (   894 PWs)   bands (ev):

    -6.5836   8.1779  10.3691  11.3169  19.1281  22.6121

          k =-0.2498 0.4996-0.2498 (   892 PWs)   bands (ev):

    -4.7812   4.1694   9.7205  10.1433  20.2782  23.3388

          k = 0.6252-0.3741 0.6252 (   892 PWs)   bands (ev):

    -2.4602   0.7444   9.1906   9.7161  20.8871  23.5422

          k = 0.5002-0.2493 0.5002 (   889 PWs)   bands (ev):

    -3.2200   1.7375   8.7628  10.3274  21.4763  23.4384

          k = 0.3752-0.1245 0.3752 (   896 PWs)   bands (ev):

    -5.4620   5.5105   8.9825  11.3919  21.4765  21.9167

          k = 0.2502 0.0004 0.2502 (   903 PWs)   bands (ev):

    -7.0052   9.3332  10.0451  12.4692  20.0760  21.3008

          k = 0.0004 0.5000 0.0004 (   881 PWs)   bands (ev):

    -5.8744   8.7575   9.1295   9.2060  17.7549  23.5596

          k =-0.1246 0.6248-0.1246 (   887 PWs)   bands (ev):

    -4.3535   5.7510   8.1231   8.3998  18.4674  22.6955

          k = 0.7503-0.2489 0.7503 (   892 PWs)   bands (ev):

    -2.1573   2.5038   6.5992   8.3735  19.3575  24.7909

          k = 0.6253-0.1241 0.6253 (   890 PWs)   bands (ev):

    -1.4532   1.6999   5.5960   9.0440  20.1273  25.1186

          k = 0.5003 0.0007 0.5003 (   889 PWs)   bands (ev):

    -3.6928   4.6090   5.6976  10.2309  21.2039  23.3259

          k = 0.0005 0.7500 0.0005 (   886 PWs)   bands (ev):

    -3.1141   4.7013   7.5149   7.5821  17.4553  20.0667

          k = 0.8755-0.1237 0.8755 (   899 PWs)   bands (ev):

    -1.1629   2.6181   5.9911   7.3322  18.2607  20.3822

          k = 0.7505 0.0011 0.7505 (   890 PWs)   bands (ev):

     0.3155   1.5728   4.0115   7.8888  18.9616  24.0926

          k =-0.0007-1.0000-0.0007 (   934 PWs)   bands (ev):

     0.5262   0.5400   6.9562   7.0219  18.0466  18.1382

          k =-0.2496 0.4998 0.0002 (   893 PWs)   bands (ev):

    -5.3238   6.7490   7.7886  10.4327  19.8663  23.3587

          k = 0.6253-0.3739 0.8751 (   892 PWs)   bands (ev):

    -3.3088   3.4395   7.0100   9.2270  21.2190  23.0102

          k = 0.5003-0.2491 0.7501 (   890 PWs)   bands (ev):

    -1.3942   0.9313   7.0008   8.5919  21.5803  22.7919

          k = 0.7505-0.2487 1.0003 (   896 PWs)   bands (ev):

    -2.6118   4.2610   6.2998   7.3739  19.6272  21.9437

          k = 0.6255-0.1239 0.8753 (   895 PWs)   bands (ev):

    -0.4282   2.1187   4.9245   6.9223  20.7946  24.2943

          k = 0.5005 0.0009 0.7503 (   895 PWs)   bands (ev):

    -1.2053   2.8982   4.4435   7.7873  21.6373  24.0778

          k =-0.2507-1.0001-0.0009 (   896 PWs)   bands (ev):

     0.8608   0.8756   5.9536   6.0122  20.1434  20.2444

          k =-0.5007-1.0003-0.0011 (   892 PWs)   bands (ev):

     1.3122   1.3206   4.9595   5.0081  23.8624  24.0119

          k =-0.1252-0.1252-0.1252 (   911 PWs)   bands (ev):

    -7.7188  10.9553  12.5786  12.5786  19.7602  19.7602

          k =-0.2503-0.2503-0.2503 (   896 PWs)   bands (ev):

    -6.4364   6.7634  11.4949  11.4949  21.0782  21.0782

          k =-0.3755-0.3755-0.3755 (   893 PWs)   bands (ev):

    -4.3723   2.6749  10.7160  10.7160  21.6659  21.6659

          k = 0.5007 0.5007 0.5007 (   886 PWs)   bands (ev):

    -2.3895  -0.0165  10.4445  10.4445  21.7391  21.7391

          k = 0.3750 0.1252-0.1246 (   894 PWs)   bands (ev):

    -6.5818   8.1775  10.4458  11.2374  19.1465  22.6703

          k =-0.3752-0.1254-0.1254 (   894 PWs)   bands (ev):

    -6.5781   8.2684  10.3726  11.2071  19.1381  22.7039

          k = 0.5000 0.2502-0.2495 (   892 PWs)   bands (ev):

    -4.7778   4.1642   9.7907  10.0775  20.3416  23.3637

          k =-0.5003-0.2505-0.2505 (   892 PWs)   bands (ev):

    -4.7675   4.2331   9.7263  10.0496  20.2900  23.3599

          k =-0.3750-0.6248 0.6243 (   892 PWs)   bands (ev):

    -2.4573   0.7393   9.1169   9.7970  20.9693  23.0943

          k = 0.3759 0.6257 0.6257 (   892 PWs)   bands (ev):

    -2.4429   0.7971   9.1017   9.7238  20.8930  23.0890

          k =-0.2500-0.4998 0.4994 (   889 PWs)   bands (ev):

    -3.2261   1.7420   8.6893  10.4106  21.5441  22.4462

          k = 0.2507 0.5005 0.5005 (   889 PWs)   bands (ev):

    -3.2083   1.7977   8.6728  10.3363  21.4748  22.4488

          k =-0.1250-0.3748 0.3746 (   896 PWs)   bands (ev):

    -5.4673   5.5118   8.9083  11.4823  21.3768  21.9665

          k = 0.1255 0.3753 0.3753 (   896 PWs)   bands (ev):

    -5.4567   5.5856   8.8900  11.3990  21.4222  21.9078

          k = 0.0000-0.2498 0.2498 (   903 PWs)   bands (ev):

    -7.0089   9.2642  10.0333  12.5705  20.0115  21.3932

          k = 0.6250 0.1254-0.1245 (   887 PWs)   bands (ev):

    -4.3501   5.7557   8.0468   8.4716  18.5028  22.6412

          k =-0.6252-0.1255-0.1255 (   887 PWs)   bands (ev):

    -4.3450   5.8173   8.0452   8.4011  18.4766  22.6586

          k =-0.2500-0.7496 0.7492 (   892 PWs)   bands (ev):

    -2.1523   2.4954   6.5409   8.4436  19.4418  24.6822

          k = 0.2511 0.7507 0.7507 (   892 PWs)   bands (ev):

    -2.1416   2.5534   6.5284   8.3755  19.3654  24.7496

          k =-0.1250-0.6246 0.6244 (   890 PWs)   bands (ev):

    -1.4641   1.7030   5.5440   9.1157  20.2105  25.0195

          k = 0.1259 0.6255 0.6255 (   890 PWs)   bands (ev):

    -1.4490   1.7579   5.5282   9.0462  20.1278  25.0541

          k = 0.0000-0.4996 0.4996 (   889 PWs)   bands (ev):

    -3.7058   4.5692   5.6892  10.3071  21.2729  23.2596

          k =-0.1250-0.8744 0.8742 (   899 PWs)   bands (ev):

    -1.1591   2.6175   5.9262   7.3986  18.3391  20.2909

          k = 0.1263 0.8757 0.8757 (   899 PWs)   bands (ev):

    -1.1542   2.6250   5.9754   7.3324  18.2710  20.3603

          k = 0.0000-0.7494 0.7494 (   890 PWs)   bands (ev):

     0.3148   1.5522   3.9764   7.9559  19.0504  23.9890

          k = 0.5002 0.2503 0.0005 (   893 PWs)   bands (ev):

    -5.3167   6.8014   7.7969  10.3568  19.8821  23.3010

          k =-0.3748-0.6246 0.8742 (   892 PWs)   bands (ev):

    -3.2994   3.4334   7.0574   9.1730  21.2974  22.9145

          k = 0.3761 0.6259 0.8757 (   892 PWs)   bands (ev):

    -3.2932   3.4962   6.9835   9.1717  21.2550  22.8883

          k =-0.8748-0.3752 0.6241 (   892 PWs)   bands (ev):

    -3.3074   3.4342   6.9962   9.2479  21.3218  22.9320

          k = 0.2509 0.5007 0.7505 (   890 PWs)   bands (ev):

    -1.3853   0.9894   6.9477   8.5682  21.5847  22.6912

          k =-0.7498-0.2502 0.4993 (   890 PWs)   bands (ev):

    -1.3971   0.9291   6.9508   8.6519  21.7324  22.6797

          k =-0.2498-0.7494 0.9992 (   896 PWs)   bands (ev):

    -2.6027   4.2855   6.3043   7.3346  19.6416  21.9042

          k =-0.1248-0.6244 0.8744 (   895 PWs)   bands (ev):

    -0.4213   2.1145   4.8844   6.9637  20.8884  24.1534

          k = 0.1261 0.6257 0.8755 (   895 PWs)   bands (ev):

    -0.4190   2.1590   4.8785   6.9163  20.8071  24.2212

          k =-0.8746-0.1252 0.6243 (   895 PWs)   bands (ev):

    -0.4282   2.1140   4.8719   6.9847  20.9015  24.1553

          k = 0.0002-0.4994 0.7496 (   895 PWs)   bands (ev):

    -1.2191   2.8708   4.4321   7.8482  21.7319  24.0402

     highest occupied, lowest unoccupied level (ev):    13.3938   17.4553

!    total energy              =     -24.07552352 Ry
     estimated scf accuracy    <          3.9E-10 Ry

     The total energy is the sum of the following terms:
     one-electron contribution =       8.19652721 Ry
     hartree contribution      =       1.93678064 Ry
     xc contribution           =      -8.67255653 Ry
     ewald contribution        =     -25.53627486 Ry

     convergence has been achieved in   4 iterations

     Forces acting on atoms (cartesian axes, Ry/au):

     atom    1 type  1   force =     0.00520569    0.00520569    0.00520569
     atom    2 type  1   force =    -0.00520569   -0.00520569   -0.00520569

     Total force =     0.012751     Total SCF correction =     0.000012


     Computing stress (Cartesian axis) and pressure

          total   stress  (Ry/bohr**3)                   (kbar)     P=       -3.79
  -0.00002579   0.00004507   0.00004507           -3.79        6.63        6.63
   0.00004507  -0.00002579   0.00004507            6.63       -3.79        6.63
   0.00004507   0.00004507  -0.00002579            6.63        6.63       -3.79

     Energy error            =      2.6E-03 Ry
     Gradient error          =      5.2E-03 Ry/Bohr
     Cell gradient error     =      6.6E+00 kbar

     number of scf cycles    =   3
     number of bfgs steps    =   2

     enthalpy           old  =     -24.0729425775 Ry
     enthalpy           new  =     -24.0755235236 Ry

     CASE: enthalpy          _new < enthalpy          _old

     new trust radius        =       0.0081950402 bohr
     new conv_thr            =       0.0000000521 Ry

     new unit-cell volume =     76.75961 a.u.^3 (    11.37460 Ang^3 )
     density =      3.50680 g/cm^3

CELL_PARAMETERS (alat=  6.75000000)
  -0.499286831  -0.000000000   0.499286831
   0.000875750   0.500162580   0.500162580
  -0.499286831   0.499286831  -0.000000000

ATOMIC_POSITIONS (alat)
C               -0.0048323786       -0.0048323786       -0.0048323786
C                0.2451205972        0.2451205972        0.2451205972



     Writing config-only to output data dir ./output/diamond.save/ :
     XML data file
     NEW-OLD atomic charge density approx. for the potential
     New effective cutoffs (rho, wfc):  312.80   78.20

     total cpu time spent up to now is        5.7 secs

     Self-consistent Calculation

     iteration #  1     ecut=    78.00 Ry     beta= 0.70
     Davidson diagonalization with overlap
     c_bands:  1 eigenvalues not converged
     ethr =  1.00E-06,  avg # of iterations =  6.0

     Threshold (ethr) on eigenvalues was too large:
     Diagonalizing with lowered threshold

     Davidson diagonalization with overlap
     ethr =  3.93E-08,  avg # of iterations =  2.4

     total cpu time spent up to now is        6.5 secs

     total energy              =     -24.07556792 Ry
     estimated scf accuracy    <       0.00000321 Ry

     iteration #  2     ecut=    78.00 Ry     beta= 0.70
     Davidson diagonalization with overlap
     ethr =  4.01E-08,  avg # of iterations =  1.2

     total cpu time spent up to now is        6.7 secs

     total energy              =     -24.07556821 Ry
     estimated scf accuracy    <       0.00000015 Ry

     iteration #  3     ecut=    78.00 Ry     beta= 0.70
     Davidson diagonalization with overlap
     ethr =  1.90E-09,  avg # of iterations =  2.1

     total cpu time spent up to now is        7.0 secs

     End of self-consistent calculation

          k = 0.0000 0.0000 0.0000 (   893 PWs)   bands (ev):

    -8.1425  13.2718  13.3297  13.3297  18.9368  18.9368

          k =-0.1251 0.1253-0.1251 (   911 PWs)   bands (ev):

    -7.7109  10.9138  12.6274  12.6740  19.7698  19.7917

          k =-0.2501 0.2506-0.2501 (   896 PWs)   bands (ev):

    -6.4292   6.7390  11.5348  11.5741  21.1196  21.4577

          k =-0.3752 0.3759-0.3752 (   893 PWs)   bands (ev):

    -4.3650   2.6569  10.7523  10.7863  21.7317  22.0002

          k = 0.5003-0.5012 0.5003 (   886 PWs)   bands (ev):

    -2.3716  -0.0431  10.4799  10.5119  21.8123  22.1480

          k =-0.0002 0.2501-0.0002 (   897 PWs)   bands (ev):

    -7.5680  11.5659  11.6082  11.9848  18.5207  21.1303

          k =-0.1253 0.3754-0.1253 (   894 PWs)   bands (ev):

    -6.5684   8.2313  10.4533  11.2619  19.1720  22.6393

          k =-0.2504 0.5007-0.2504 (   892 PWs)   bands (ev):

    -4.7568   4.2057   9.7997  10.0955  20.3635  23.3599

          k = 0.6251-0.3763 0.6251 (   892 PWs)   bands (ev):

    -2.4260   0.7696   9.1378   9.7939  20.9894  23.5676

          k = 0.5001-0.2510 0.5001 (   889 PWs)   bands (ev):

    -3.2036   1.7845   8.7011  10.4080  21.5726  22.4988

          k = 0.3750-0.1257 0.3750 (   896 PWs)   bands (ev):

    -5.4532   5.5707   8.9135  11.4795  21.4570  21.9943

          k = 0.2499-0.0004 0.2499 (   903 PWs)   bands (ev):

    -6.9995   9.3161  10.0582  12.5673  20.0913  21.4020

          k =-0.0004 0.5003-0.0004 (   881 PWs)   bands (ev):

    -5.8633   8.7925   9.1680   9.2124  17.7926  23.6057

          k =-0.1255 0.6256-0.1255 (   887 PWs)   bands (ev):

    -4.3316   5.7879   8.0805   8.4780  18.5330  22.6708

          k = 0.7500-0.2515 0.7500 (   892 PWs)   bands (ev):

    -2.1238   2.5210   6.5628   8.4497  19.4698  24.7121

          k = 0.6249-0.1262 0.6249 (   890 PWs)   bands (ev):

    -1.4430   1.7424   5.5542   9.1215  20.2389  25.0831

          k = 0.4998-0.0009 0.4998 (   889 PWs)   bands (ev):

    -3.6939   4.6099   5.7081  10.3132  21.3085  23.3360

          k =-0.0007 0.7504-0.0007 (   886 PWs)   bands (ev):

    -3.0994   4.7270   7.5473   7.5939  17.4926  20.1050

          k = 0.8748-0.1266 0.8748 (   899 PWs)   bands (ev):

    -1.1345   2.6320   5.9595   7.4093  18.3725  20.3265

          k = 0.7498-0.0013 0.7498 (   890 PWs)   bands (ev):

     0.3237   1.5865   4.0013   7.9668  19.0813  24.0373

          k = 0.0009-1.0006 0.0009 (   934 PWs)   bands (ev):

     0.5478   0.5579   6.9868   7.0340  18.0888  18.1698

          k =-0.2506 0.5005-0.0002 (   893 PWs)   bands (ev):

    -5.3040   6.8073   7.8213  10.4103  19.9084  23.3562

          k = 0.6249-0.3765 0.8753 (   892 PWs)   bands (ev):

    -3.2781   3.4678   7.0426   9.2193  21.3378  22.9477

          k = 0.4998-0.2512 0.7502 (   890 PWs)   bands (ev):

    -1.3652   0.9616   6.9923   8.6200  21.6666  22.7791

          k = 0.7498-0.2517 1.0001 (   896 PWs)   bands (ev):

    -2.5851   4.2944   6.3258   7.3724  19.6726  21.9532

          k = 0.6247-0.1264 0.8750 (   895 PWs)   bands (ev):

    -0.3943   2.1342   4.9025   6.9785  20.9277  24.1910

          k = 0.4996-0.0011 0.7500 (   895 PWs)   bands (ev):

    -1.2065   2.9094   4.4519   7.8550  21.7629  24.1018

          k =-0.2493-1.0003 0.0011 (   896 PWs)   bands (ev):

     0.8787   0.8993   5.9840   6.0206  20.1901  20.2775

          k =-0.4994-1.0001 0.0013 (   892 PWs)   bands (ev):

     1.3237   1.3544   4.9923   5.0087  23.9364  24.0224

          k =-0.1249-0.1249-0.1249 (   911 PWs)   bands (ev):

    -7.7131  10.8554  12.6799  12.6799  19.7906  19.7906

          k =-0.2497-0.2497-0.2497 (   896 PWs)   bands (ev):

    -6.4381   6.6859  11.5884  11.5884  21.1354  21.1354

          k =-0.3746-0.3746-0.3746 (   893 PWs)   bands (ev):

    -4.3858   2.6190  10.8060  10.8060  21.7525  21.7526

          k = 0.4994 0.4994 0.4994 (   886 PWs)   bands (ev):

    -2.4128  -0.0590  10.5334  10.5334  21.8376  21.8376

          k = 0.3752 0.1249-0.1255 (   894 PWs)   bands (ev):

    -6.5706   8.2434  10.4154  11.2789  19.1779  22.6903

          k =-0.3750-0.1246-0.1246 (   894 PWs)   bands (ev):

    -6.5750   8.1880  10.4618  11.2942  19.1896  22.7576

          k = 0.5003 0.2499-0.2508 (   892 PWs)   bands (ev):

    -4.7610   4.2181   9.7660  10.1099  20.3384  23.4173

          k =-0.4998-0.2495-0.2495 (   892 PWs)   bands (ev):

    -4.7747   4.1726   9.8140  10.1322  20.3758  23.4422

          k =-0.3752-0.6256 0.6262 (   892 PWs)   bands (ev):

    -2.4300   0.7780   9.1581   9.7647  20.9475  23.1598

          k = 0.3741 0.6245 0.6245 (   892 PWs)   bands (ev):

    -2.4623   0.7541   9.1836   9.8104  21.0022  23.1838

          k =-0.2501-0.5005 0.5009 (   889 PWs)   bands (ev):

    -3.1957   1.7767   8.7310  10.3808  21.5322  22.5085

          k = 0.2493 0.4996 0.4996 (   889 PWs)   bands (ev):

    -3.2240   1.7497   8.7556  10.4228  21.5849  22.5308

          k =-0.1251-0.3754 0.3756 (   896 PWs)   bands (ev):

    -5.4466   5.5608   8.9532  11.4513  21.4539  21.9627

          k = 0.1244 0.3748 0.3748 (   896 PWs)   bands (ev):

    -5.4600   5.5182   8.9730  11.4887  21.4684  22.0039

          k = 0.0000-0.2504 0.2504 (   903 PWs)   bands (ev):

    -6.9951   9.3398  10.0718  12.5336  20.0767  21.3824

          k = 0.6253 0.1246-0.1257 (   887 PWs)   bands (ev):

    -4.3359   5.8083   8.0967   8.4364  18.5152  22.7177

          k =-0.6251-0.1244-0.1244 (   887 PWs)   bands (ev):

    -4.3427   5.7749   8.0907   8.4840  18.5406  22.7016

          k =-0.2501-0.7509 0.7513 (   892 PWs)   bands (ev):

    -2.1309   2.5444   6.5760   8.4113  19.4094  24.8177

          k = 0.2488 0.7495 0.7495 (   892 PWs)   bands (ev):

    -2.1512   2.5159   6.5870   8.4579  19.4736  24.7499

          k =-0.1251-0.6258 0.6260 (   890 PWs)   bands (ev):

    -1.4261   1.7347   5.5759   9.0859  20.1771  25.1019

          k = 0.1240 0.6247 0.6247 (   890 PWs)   bands (ev):

    -1.4609   1.7212   5.5915   9.1276  20.2434  25.1098

          k = 0.0000-0.5007 0.5007 (   889 PWs)   bands (ev):

    -3.6763   4.6158   5.7182  10.2787  21.2557  23.3352

          k =-0.1251-0.8761 0.8764 (   899 PWs)   bands (ev):

    -1.1403   2.6449   5.9917   7.3644  18.3086  20.4068

          k = 0.1235 0.8746 0.8746 (   899 PWs)   bands (ev):

    -1.1500   2.6487   5.9531   7.4114  18.3702  20.3431

          k = 0.0000-0.7511 0.7511 (   890 PWs)   bands (ev):

     0.3501   1.5802   4.0166   7.9237  19.0068  24.1380

          k = 0.5001 0.2497-0.0007 (   893 PWs)   bands (ev):

    -5.3128   6.7958   7.8099  10.4344  19.9219  23.3951

          k =-0.3754-0.6258 0.8764 (   892 PWs)   bands (ev):

    -3.2907   3.4877   7.0117   9.2359  21.3043  23.0017

          k = 0.3739 0.6243 0.8746 (   892 PWs)   bands (ev):

    -3.3006   3.4483   7.0563   9.2485  21.3394  23.0130

          k =-0.8757-0.3750 0.6264 (   892 PWs)   bands (ev):

    -3.2800   3.4814   7.0313   9.2163  21.2819  22.9576

          k = 0.2490 0.4994 0.7498 (   890 PWs)   bands (ev):

    -1.4010   0.9514   7.0201   8.6469  21.6899  22.8268

          k =-0.7506-0.2499 0.5012 (   890 PWs)   bands (ev):

    -1.3610   0.9659   6.9933   8.6109  21.6117  22.7615

          k =-0.2504-0.7511 1.0014 (   896 PWs)   bands (ev):

    -2.5983   4.3026   6.3202   7.3779  19.6770  21.9760

          k =-0.1253-0.6260 0.8761 (   895 PWs)   bands (ev):

    -0.4058   2.1563   4.9151   6.9505  20.8557  24.2968

          k = 0.1238 0.6245 0.8748 (   895 PWs)   bands (ev):

    -0.4241   2.1476   4.9113   6.9865  20.9265  24.2250

          k =-0.8759-0.1249 0.6262 (   895 PWs)   bands (ev):

    -0.3934   2.1518   4.9054   6.9544  20.8447  24.2889

          k =-0.0002-0.5009 0.7509 (   895 PWs)   bands (ev):

    -1.1812   2.9049   4.4579   7.8257  21.6905  24.1054

     highest occupied, lowest unoccupied level (ev):    13.3297   17.4926

!    total energy              =     -24.07556824 Ry
     estimated scf accuracy    <          4.0E-09 Ry

     The total energy is the sum of the following terms:
     one-electron contribution =       8.21663025 Ry
     hartree contribution      =       1.93497718 Ry
     xc contribution           =      -8.67564613 Ry
     ewald contribution        =     -25.55152954 Ry

     convergence has been achieved in   3 iterations

     Forces acting on atoms (cartesian axes, Ry/au):

     atom    1 type  1   force =    -0.00159834   -0.00159834   -0.00159834
     atom    2 type  1   force =     0.00159834    0.00159834    0.00159834

     Total force =     0.003915     Total SCF correction =     0.000038


     Computing stress (Cartesian axis) and pressure

          total   stress  (Ry/bohr**3)                   (kbar)     P=        4.03
   0.00002739  -0.00006406  -0.00006406            4.03       -9.42       -9.42
  -0.00006406   0.00002739  -0.00006406           -9.42        4.03       -9.42
  -0.00006406  -0.00006406   0.00002739           -9.42       -9.42        4.03

     Energy error            =      4.5E-05 Ry
     Gradient error          =      1.6E-03 Ry/Bohr
     Cell gradient error     =      9.4E+00 kbar

     number of scf cycles    =   4
     number of bfgs steps    =   3

     enthalpy           old  =     -24.0755235236 Ry
     enthalpy           new  =     -24.0755682376 Ry

     CASE: enthalpy          _new < enthalpy          _old

     new trust radius        =       0.0025678523 bohr
     new conv_thr            =       0.0000000100 Ry

     new unit-cell volume =     76.85916 a.u.^3 (    11.38935 Ang^3 )
     density =      3.50226 g/cm^3

CELL_PARAMETERS (alat=  6.75000000)
  -0.499997331  -0.000000000   0.499997331
  -0.000114146   0.499883186   0.499883186
  -0.499997331   0.499997331  -0.000000000

ATOMIC_POSITIONS (alat)
C               -0.0049744711       -0.0049744711       -0.0049744711
C                0.2448910054        0.2448910054        0.2448910054



     Writing config-only to output data dir ./output/diamond.save/ :
     XML data file
     NEW-OLD atomic charge density approx. for the potential
     New effective cutoffs (rho, wfc):  312.13   78.03

     total cpu time spent up to now is        7.1 secs

     Self-consistent Calculation

     iteration #  1     ecut=    78.00 Ry     beta= 0.70
     Davidson diagonalization with overlap
     c_bands:  1 eigenvalues not converged
     ethr =  1.00E-06,  avg # of iterations =  3.5

     Threshold (ethr) on eigenvalues was too large:
     Diagonalizing with lowered threshold

     Davidson diagonalization with overlap
     ethr =  1.15E-08,  avg # of iterations =  3.5

     total cpu time spent up to now is        7.8 secs

     total energy              =     -24.07558714 Ry
     estimated scf accuracy    <       0.00000101 Ry

     iteration #  2     ecut=    78.00 Ry     beta= 0.70
     Davidson diagonalization with overlap
     ethr =  1.26E-08,  avg # of iterations =  1.2

     total cpu time spent up to now is        8.0 secs

     total energy              =     -24.07558723 Ry
     estimated scf accuracy    <       0.00000004 Ry

     iteration #  3     ecut=    78.00 Ry     beta= 0.70
     Davidson diagonalization with overlap
     ethr =  4.97E-10,  avg # of iterations =  2.1

     total cpu time spent up to now is        8.3 secs

     End of self-consistent calculation

          k = 0.0000 0.0000 0.0000 (   893 PWs)   bands (ev):

    -8.1485  13.2818  13.2895  13.2895  18.8943  18.8943

          k =-0.1250 0.1250-0.1250 (   911 PWs)   bands (ev):

    -7.7179  10.8782  12.6322  12.6382  19.7486  19.7639

          k =-0.2500 0.2500-0.2500 (   896 PWs)   bands (ev):

    -6.4393   6.7078  11.5392  11.5450  21.1048  21.4378

          k =-0.3750 0.3750-0.3750 (   893 PWs)   bands (ev):

    -4.3806   2.6337  10.7556  10.7619  21.7135  21.9816

          k = 0.5001-0.4999 0.5001 (   886 PWs)   bands (ev):

    -2.3973  -0.0554  10.4827  10.4892  21.7944  22.1293

          k = 0.0000 0.2500 0.0000 (   897 PWs)   bands (ev):

    -7.5745  11.5661  11.5671  11.9602  18.4937  21.1097

          k =-0.1250 0.3750-0.1250 (   894 PWs)   bands (ev):

    -6.5789   8.2093  10.4181  11.2518  19.1545  22.6365

          k =-0.2500 0.5000-0.2500 (   892 PWs)   bands (ev):

    -4.7735   4.1896   9.7695  10.0875  20.3272  23.3629

          k = 0.6251-0.3749 0.6251 (   892 PWs)   bands (ev):

    -2.4515   0.7604   9.1381   9.7668  20.9437  23.5672

          k = 0.5001-0.2499 0.5001 (   889 PWs)   bands (ev):

    -3.2162   1.7587   8.7105  10.3811  21.5256  22.4745

          k = 0.3751-0.1249 0.3751 (   896 PWs)   bands (ev):

    -5.4599   5.5344   8.9303  11.4493  21.4218  21.9471

          k = 0.2501 0.0001 0.2501 (   903 PWs)   bands (ev):

    -7.0041   9.3065  10.0464  12.5299  20.0502  21.3640

          k = 0.0001 0.5001 0.0001 (   881 PWs)   bands (ev):

    -5.8714   8.7708   9.1711   9.1728  17.7660  23.5730

          k =-0.1250 0.6250-0.1250 (   887 PWs)   bands (ev):

    -4.3468   5.7808   8.0687   8.4412  18.4997  22.6740

          k = 0.7501-0.2499 0.7501 (   892 PWs)   bands (ev):

    -2.1479   2.5207   6.5561   8.4155  19.4117  24.7468

          k = 0.6251-0.1249 0.6251 (   890 PWs)   bands (ev):

    -1.4521   1.7205   5.5584   9.0876  20.1791  25.0607

          k = 0.5001 0.0001 0.5001 (   889 PWs)   bands (ev):

    -3.6942   4.5943   5.6992  10.2768  21.2501  23.2991

          k = 0.0001 0.7501 0.0001 (   886 PWs)   bands (ev):

    -3.1101   4.7085   7.5530   7.5557  17.4668  20.0771

          k = 0.8752-0.1248 0.8752 (   899 PWs)   bands (ev):

    -1.1551   2.6285   5.9588   7.3703  18.3113  20.3461

          k = 0.7502 0.0002 0.7502 (   890 PWs)   bands (ev):

     0.3241   1.5664   3.9976   7.9275  19.0139  24.0597

          k =-0.0001-1.0001-0.0001 (   934 PWs)   bands (ev):

     0.5366   0.5405   6.9933   6.9962  18.0993  18.1068

          k =-0.2500 0.5000 0.0000 (   893 PWs)   bands (ev):

    -5.3176   6.7852   7.7974  10.4002  19.8889  23.3435

          k = 0.6251-0.3749 0.8751 (   892 PWs)   bands (ev):

    -3.2994   3.4586   7.0169   9.2113  21.2881  22.9458

          k = 0.5001-0.2499 0.7501 (   890 PWs)   bands (ev):

    -1.3890   0.9507   6.9805   8.6092  21.6339  22.7470

          k = 0.7502-0.2498 1.0002 (   896 PWs)   bands (ev):

    -2.6039   4.2828   6.3077   7.3575  19.6483  21.9351

          k = 0.6252-0.1248 0.8752 (   895 PWs)   bands (ev):

    -0.4206   2.1363   4.8922   6.9527  20.8575  24.2220

          k = 0.5001 0.0001 0.7501 (   895 PWs)   bands (ev):

    -1.2051   2.8887   4.4423   7.8241  21.6952  24.0688

          k =-0.2501-1.0001-0.0001 (   896 PWs)   bands (ev):

     0.8712   0.8767   5.9872   5.9890  20.2014  20.2094

          k =-0.5002-1.0002-0.0002 (   892 PWs)   bands (ev):

     1.3187   1.3266   4.9872   4.9893  23.9501  23.9512

          k =-0.1250-0.1250-0.1250 (   911 PWs)   bands (ev):

    -7.7176  10.8779  12.6363  12.6363  19.7512  19.7512

          k =-0.2501-0.2501-0.2501 (   896 PWs)   bands (ev):

    -6.4381   6.7101  11.5405  11.5405  21.0956  21.0956

          k =-0.3751-0.3751-0.3751 (   893 PWs)   bands (ev):

    -4.3777   2.6350  10.7559  10.7559  21.7045  21.7045

          k = 0.5002 0.5002 0.5002 (   886 PWs)   bands (ev):

    -2.3896  -0.0586  10.4827  10.4827  21.7849  21.7849

          k = 0.3750 0.1250-0.1250 (   894 PWs)   bands (ev):

    -6.5786   8.2066  10.4171  11.2579  19.1510  22.6422

          k =-0.3751-0.1251-0.1251 (   894 PWs)   bands (ev):

    -6.5780   8.2084  10.4157  11.2576  19.1495  22.7181

          k = 0.5001 0.2501-0.2499 (   892 PWs)   bands (ev):

    -4.7729   4.1874   9.7678  10.0931  20.3252  23.3973

          k =-0.5001-0.2501-0.2501 (   892 PWs)   bands (ev):

    -4.7710   4.1895   9.7655  10.0904  20.3231  23.3950

          k =-0.3750-0.6250 0.6250 (   892 PWs)   bands (ev):

    -2.4509   0.7591   9.1419   9.7641  20.9432  23.1360

          k = 0.3752 0.6252 0.6252 (   892 PWs)   bands (ev):

    -2.4453   0.7577   9.1383   9.7620  20.9402  23.1302

          k =-0.2500-0.5000 0.5000 (   889 PWs)   bands (ev):

    -3.2173   1.7599   8.7123  10.3774  21.5259  22.4860

          k = 0.2501 0.5001 0.5001 (   889 PWs)   bands (ev):

    -3.2129   1.7594   8.7088  10.3766  21.5230  22.4795

          k =-0.1250-0.3750 0.3750 (   896 PWs)   bands (ev):

    -5.4608   5.5365   8.9301  11.4450  21.4333  21.9498

          k = 0.1251 0.3751 0.3751 (   896 PWs)   bands (ev):

    -5.4590   5.5374   8.9278  11.4464  21.4257  21.9461

          k = 0.0000-0.2500 0.2500 (   903 PWs)   bands (ev):

    -7.0046   9.3101  10.0438  12.5256  20.0611  21.3578

          k = 0.6251 0.1251-0.1249 (   887 PWs)   bands (ev):

    -4.3462   5.7755   8.0739   8.4424  18.4995  22.6698

          k =-0.6251-0.1251-0.1251 (   887 PWs)   bands (ev):

    -4.3453   5.7758   8.0757   8.4396  18.4969  22.6713

          k =-0.2500-0.7500 0.7500 (   892 PWs)   bands (ev):

    -2.1469   2.5163   6.5600   8.4160  19.4152  24.7361

          k = 0.2502 0.7502 0.7502 (   892 PWs)   bands (ev):

    -2.1436   2.5159   6.5591   8.4134  19.4099  24.7433

          k =-0.1250-0.6250 0.6250 (   890 PWs)   bands (ev):

    -1.4547   1.7219   5.5596   9.0872  20.1831  25.0687

          k = 0.1252 0.6252 0.6252 (   890 PWs)   bands (ev):

    -1.4485   1.7185   5.5580   9.0860  20.1780  25.0623

          k = 0.0000-0.5000 0.5000 (   889 PWs)   bands (ev):

    -3.6966   4.5979   5.6976  10.2756  21.2535  23.3077

          k =-0.1250-0.8750 0.8750 (   899 PWs)   bands (ev):

    -1.1542   2.6257   5.9592   7.3726  18.3164  20.3388

          k = 0.1252 0.8752 0.8752 (   899 PWs)   bands (ev):

    -1.1526   2.6239   5.9622   7.3697  18.3105  20.3450

          k = 0.0000-0.7500 0.7500 (   890 PWs)   bands (ev):

     0.3182   1.5702   3.9982   7.9294  19.0202  24.0493

          k = 0.5001 0.2501 0.0001 (   893 PWs)   bands (ev):

    -5.3164   6.7811   7.7995  10.4038  19.8841  23.3411

          k =-0.3750-0.6250 0.8750 (   892 PWs)   bands (ev):

    -3.2977   3.4548   7.0183   9.2139  21.2863  22.9451

          k = 0.3752 0.6252 0.8752 (   892 PWs)   bands (ev):

    -3.2962   3.4563   7.0170   9.2112  21.2835  22.9455

          k =-0.8751-0.3751 0.6249 (   892 PWs)   bands (ev):

    -3.2992   3.4561   7.0212   9.2095  21.2881  22.9535

          k = 0.2502 0.5002 0.7502 (   890 PWs)   bands (ev):

    -1.3818   0.9461   6.9806   8.6057  21.6285  22.7478

          k =-0.7501-0.2501 0.4999 (   890 PWs)   bands (ev):

    -1.3895   0.9499   6.9864   8.6039  21.6287  22.7641

          k =-0.2500-0.7500 1.0000 (   896 PWs)   bands (ev):

    -2.6020   4.2779   6.3085   7.3609  19.6458  21.9344

          k =-0.1250-0.6250 0.8750 (   895 PWs)   bands (ev):

    -0.4188   2.1318   4.8941   6.9541  20.8626  24.2148

          k = 0.1252 0.6252 0.8752 (   895 PWs)   bands (ev):

    -0.4149   2.1284   4.8958   6.9515  20.8563  24.2228

          k =-0.8750-0.1250 0.6250 (   895 PWs)   bands (ev):

    -0.4208   2.1328   4.8979   6.9507  20.8634  24.2166

          k = 0.0000-0.5000 0.7500 (   895 PWs)   bands (ev):

    -1.2092   2.8931   4.4422   7.8235  21.7000  24.0729

     highest occupied, lowest unoccupied level (ev):    13.2895   17.4668

!    total energy              =     -24.07558724 Ry
     estimated scf accuracy    <          1.2E-09 Ry

     The total energy is the sum of the following terms:
     one-electron contribution =       8.20197044 Ry
     hartree contribution      =       1.93633420 Ry
     xc contribution           =      -8.67342952 Ry
     ewald contribution        =     -25.54046236 Ry

     convergence has been achieved in   3 iterations

     Forces acting on atoms (cartesian axes, Ry/au):

     atom    1 type  1   force =    -0.00026425   -0.00026425   -0.00026425
     atom    2 type  1   force =     0.00026425    0.00026425    0.00026425

     Total force =     0.000647     Total SCF correction =     0.000019


     Computing stress (Cartesian axis) and pressure

          total   stress  (Ry/bohr**3)                   (kbar)     P=       -1.65
  -0.00001120   0.00000928   0.00000928           -1.65        1.37        1.37
   0.00000928  -0.00001120   0.00000928            1.37       -1.65        1.37
   0.00000928   0.00000928  -0.00001120            1.37        1.37       -1.65

     Energy error            =      1.9E-05 Ry
     Gradient error          =      2.6E-04 Ry/Bohr
     Cell gradient error     =      1.6E+00 kbar

     number of scf cycles    =   5
     number of bfgs steps    =   4

     enthalpy           old  =     -24.0755682376 Ry
     enthalpy           new  =     -24.0755872354 Ry

     CASE: enthalpy          _new < enthalpy          _old

     new trust radius        =       0.0004979425 bohr
     new conv_thr            =       0.0000000100 Ry

     new unit-cell volume =     76.80383 a.u.^3 (    11.38115 Ang^3 )
     density =      3.50478 g/cm^3

CELL_PARAMETERS (alat=  6.75000000)
  -0.499823657  -0.000000000   0.499823657
  -0.000006813   0.499816844   0.499816844
  -0.499823657   0.499823657  -0.000000000

ATOMIC_POSITIONS (alat)
C               -0.0050115998       -0.0050115998       -0.0050115998
C                0.2449220498        0.2449220498        0.2449220498



     Writing config-only to output data dir ./output/diamond.save/ :
     XML data file
     NEW-OLD atomic charge density approx. for the potential
     New effective cutoffs (rho, wfc):  312.16   78.04

     total cpu time spent up to now is        8.5 secs

     Self-consistent Calculation

     iteration #  1     ecut=    78.00 Ry     beta= 0.70
     Davidson diagonalization with overlap
     ethr =  1.00E-06,  avg # of iterations =  2.0

     Threshold (ethr) on eigenvalues was too large:
     Diagonalizing with lowered threshold

     Davidson diagonalization with overlap
     ethr =  1.81E-09,  avg # of iterations =  3.8

     total cpu time spent up to now is        9.1 secs

     total energy              =     -24.07558758 Ry
     estimated scf accuracy    <       0.00000017 Ry

     iteration #  2     ecut=    78.00 Ry     beta= 0.70
     Davidson diagonalization with overlap
     ethr =  2.13E-09,  avg # of iterations =  1.7

     total cpu time spent up to now is        9.3 secs

     End of self-consistent calculation

          k = 0.0000 0.0000 0.0000 (   893 PWs)   bands (ev):

    -8.1453  13.2983  13.2983  13.3028  18.9161  18.9161

          k =-0.1250 0.1250-0.1250 (   911 PWs)   bands (ev):

    -7.7144  10.8891  12.6464  12.6500  19.7688  19.7718

          k =-0.2501 0.2501-0.2501 (   896 PWs)   bands (ev):

    -6.4349   6.7175  11.5520  11.5552  21.1112  21.4564

          k =-0.3751 0.3751-0.3751 (   893 PWs)   bands (ev):

    -4.3746   2.6410  10.7678  10.7710  21.7193  22.0013

          k = 0.5002-0.5002 0.5002 (   886 PWs)   bands (ev):

    -2.3879  -0.0516  10.4948  10.4979  21.7996  22.1496

          k = 0.0000 0.2501 0.0000 (   897 PWs)   bands (ev):

    -7.5709  11.5771  11.5792  11.9731  18.5086  21.1222

          k =-0.1250 0.3751-0.1250 (   894 PWs)   bands (ev):

    -6.5746   8.2174  10.4267  11.2703  19.1664  22.6483

          k =-0.2501 0.5002-0.2501 (   892 PWs)   bands (ev):

    -4.7676   4.1963   9.7770  10.1040  20.3402  23.3754

          k = 0.6252-0.3751 0.6252 (   892 PWs)   bands (ev):

    -2.4428   0.7646   9.1522   9.7735  20.9576  23.5811

          k = 0.5002-0.2501 0.5002 (   889 PWs)   bands (ev):

    -3.2098   1.7659   8.7226  10.3878  21.5410  22.5006

          k = 0.3751-0.1250 0.3751 (   896 PWs)   bands (ev):

    -5.4555   5.5449   8.9411  11.4568  21.4470  21.9658

          k = 0.2501 0.0000 0.2501 (   903 PWs)   bands (ev):

    -7.0005   9.3204  10.0556  12.5389  20.0725  21.3770

          k = 0.0000 0.5002 0.0000 (   881 PWs)   bands (ev):

    -5.8670   8.7828   9.1811   9.1826  17.7807  23.5909

          k =-0.1250 0.6252-0.1250 (   887 PWs)   bands (ev):

    -4.3409   5.7860   8.0846   8.4500  18.5135  22.6886

          k = 0.7503-0.2501 0.7503 (   892 PWs)   bands (ev):

    -2.1397   2.5245   6.5692   8.4239  19.4273  24.7602

          k = 0.6252-0.1250 0.6252 (   890 PWs)   bands (ev):

    -1.4451   1.7272   5.5684   9.0961  20.1956  25.0859

          k = 0.5002 0.0000 0.5002 (   889 PWs)   bands (ev):

    -3.6897   4.6061   5.7063  10.2861  21.2679  23.3224

          k = 0.0000 0.7503 0.0000 (   886 PWs)   bands (ev):

    -3.1043   4.7186   7.5626   7.5639  17.4813  20.0921

          k = 0.8753-0.1250 0.8753 (   899 PWs)   bands (ev):

    -1.1471   2.6348   5.9685   7.3794  18.3275  20.3586

          k = 0.7503 0.0000 0.7503 (   890 PWs)   bands (ev):

     0.3295   1.5769   4.0043   7.9369  19.0312  24.0736

          k =-0.0000-1.0004-0.0000 (   934 PWs)   bands (ev):

     0.5460   0.5467   7.0027   7.0039  18.1168  18.1183

          k =-0.2501 0.5002 0.0000 (   893 PWs)   bands (ev):

    -5.3124   6.7926   7.8076  10.4141  19.9021  23.3612

          k = 0.6252-0.3751 0.8753 (   892 PWs)   bands (ev):

    -3.2923   3.4641   7.0278   9.2221  21.3014  22.9672

          k = 0.5002-0.2501 0.7503 (   890 PWs)   bands (ev):

    -1.3794   0.9547   6.9923   8.6161  21.6455  22.7722

          k = 0.7503-0.2501 1.0004 (   896 PWs)   bands (ev):

    -2.5968   4.2898   6.3163   7.3684  19.6625  21.9512

          k = 0.6252-0.1250 0.8753 (   895 PWs)   bands (ev):

    -0.4108   2.1401   4.9034   6.9600  20.8748  24.2382

          k = 0.5002 0.0000 0.7503 (   895 PWs)   bands (ev):

    -1.1999   2.9003   4.4492   7.8321  21.7128  24.0899

          k =-0.2501-1.0004-0.0000 (   896 PWs)   bands (ev):

     0.8818   0.8825   5.9952   5.9965  20.2202  20.2219

          k =-0.5002-1.0004-0.0000 (   892 PWs)   bands (ev):

     1.3312   1.3321   4.9943   4.9956  23.9650  23.9684

          k =-0.1250-0.1250-0.1250 (   911 PWs)   bands (ev):

    -7.7144  10.8917  12.6467  12.6467  19.7711  19.7711

          k =-0.2501-0.2501-0.2501 (   896 PWs)   bands (ev):

    -6.4348   6.7191  11.5525  11.5525  21.1130  21.1130

          k =-0.3751-0.3751-0.3751 (   893 PWs)   bands (ev):

    -4.3745   2.6423  10.7686  10.7686  21.7209  21.7209

          k = 0.5002 0.5002 0.5002 (   886 PWs)   bands (ev):

    -2.3883  -0.0500  10.4956  10.4956  21.8011  21.8011

          k = 0.3751 0.1250-0.1250 (   894 PWs)   bands (ev):

    -6.5745   8.2176  10.4286  11.2679  19.1671  22.6609

          k =-0.3751-0.1250-0.1250 (   894 PWs)   bands (ev):

    -6.5745   8.2195  10.4270  11.2674  19.1670  22.7369

          k = 0.5002 0.2501-0.2501 (   892 PWs)   bands (ev):

    -4.7676   4.1964   9.7789  10.1019  20.3418  23.4103

          k =-0.5002-0.2501-0.2501 (   892 PWs)   bands (ev):

    -4.7675   4.1978   9.7774  10.1016  20.3408  23.4128

          k =-0.3751-0.6252 0.6252 (   892 PWs)   bands (ev):

    -2.4428   0.7646   9.1502   9.7755  20.9595  23.1481

          k = 0.3751 0.6252 0.6252 (   892 PWs)   bands (ev):

    -2.4429   0.7661   9.1501   9.7741  20.9580  23.1480

          k =-0.2501-0.5002 0.5002 (   889 PWs)   bands (ev):

    -3.2098   1.7659   8.7208  10.3900  21.5427  22.4973

          k = 0.2501 0.5002 0.5002 (   889 PWs)   bands (ev):

    -3.2098   1.7672   8.7207  10.3884  21.5412  22.4979

          k =-0.1250-0.3751 0.3751 (   896 PWs)   bands (ev):

    -5.4555   5.5448   8.9394  11.4592  21.4440  21.9666

          k = 0.1251 0.3751 0.3751 (   896 PWs)   bands (ev):

    -5.4555   5.5464   8.9392  11.4572  21.4454  21.9657

          k = 0.0000-0.2501 0.2501 (   903 PWs)   bands (ev):

    -7.0006   9.3184  10.0557  12.5415  20.0702  21.3795

          k = 0.6252 0.1250-0.1250 (   887 PWs)   bands (ev):

    -4.3409   5.7866   8.0824   8.4515  18.5143  22.6877

          k =-0.6252-0.1251-0.1251 (   887 PWs)   bands (ev):

    -4.3409   5.7879   8.0822   8.4502  18.5139  22.6880

          k =-0.2501-0.7503 0.7503 (   892 PWs)   bands (ev):

    -2.1397   2.5247   6.5675   8.4254  19.4290  24.7585

          k = 0.2501 0.7503 0.7503 (   892 PWs)   bands (ev):

    -2.1397   2.5261   6.5673   8.4241  19.4276  24.7595

          k =-0.1250-0.6252 0.6252 (   890 PWs)   bands (ev):

    -1.4451   1.7271   5.5671   9.0978  20.1972  25.0831

          k = 0.1251 0.6252 0.6252 (   890 PWs)   bands (ev):

    -1.4453   1.7287   5.5669   9.0963  20.1957  25.0843

          k = 0.0000-0.5002 0.5002 (   889 PWs)   bands (ev):

    -3.6898   4.6048   5.7063  10.2879  21.2693  23.3202

          k =-0.1250-0.8753 0.8753 (   899 PWs)   bands (ev):

    -1.1470   2.6350   5.9670   7.3807  18.3289  20.3571

          k = 0.1251 0.8753 0.8753 (   899 PWs)   bands (ev):

    -1.1471   2.6354   5.9678   7.3795  18.3278  20.3582

          k = 0.0000-0.7503 0.7503 (   890 PWs)   bands (ev):

     0.3300   1.5760   4.0035   7.9383  19.0327  24.0720

          k = 0.5002 0.2501 0.0000 (   893 PWs)   bands (ev):

    -5.3123   6.7942   7.8076  10.4121  19.9028  23.3601

          k =-0.3751-0.6252 0.8753 (   892 PWs)   bands (ev):

    -3.2922   3.4643   7.0288   9.2207  21.3034  22.9651

          k = 0.3751 0.6252 0.8753 (   892 PWs)   bands (ev):

    -3.2922   3.4656   7.0272   9.2209  21.3026  22.9645

          k =-0.8753-0.3751 0.6252 (   892 PWs)   bands (ev):

    -3.2923   3.4642   7.0271   9.2227  21.3038  22.9648

          k = 0.2501 0.5002 0.7503 (   890 PWs)   bands (ev):

    -1.3799   0.9565   6.9911   8.6159  21.6460  22.7700

          k =-0.7503-0.2501 0.5002 (   890 PWs)   bands (ev):

    -1.3795   0.9548   6.9907   8.6179  21.6493  22.7685

          k =-0.2501-0.7503 1.0004 (   896 PWs)   bands (ev):

    -2.5968   4.2908   6.3163   7.3672  19.6630  21.9504

          k =-0.1250-0.6252 0.8753 (   895 PWs)   bands (ev):

    -0.4108   2.1404   4.9023   6.9608  20.8765  24.2355

          k = 0.1251 0.6252 0.8753 (   895 PWs)   bands (ev):

    -0.4111   2.1417   4.9021   6.9599  20.8752  24.2365

          k =-0.8753-0.1250 0.6252 (   895 PWs)   bands (ev):

    -0.4108   2.1403   4.9017   6.9616  20.8768  24.2354

          k = 0.0000-0.5002 0.7503 (   895 PWs)   bands (ev):

    -1.1998   2.8993   4.4490   7.8335  21.7146  24.0886

     highest occupied, lowest unoccupied level (ev):    13.3028   17.4813

!    total energy              =     -24.07558760 Ry
     estimated scf accuracy    <          3.5E-09 Ry

     The total energy is the sum of the following terms:
     one-electron contribution =       8.21007687 Ry
     hartree contribution      =       1.93560562 Ry
     xc contribution           =      -8.67467318 Ry
     ewald contribution        =     -25.54659691 Ry

     convergence has been achieved in   2 iterations

     Forces acting on atoms (cartesian axes, Ry/au):

     atom    1 type  1   force =     0.00013209    0.00013209    0.00013209
     atom    2 type  1   force =    -0.00013209   -0.00013209   -0.00013209

     Total force =     0.000324     Total SCF correction =     0.000028


     Computing stress (Cartesian axis) and pressure

          total   stress  (Ry/bohr**3)                   (kbar)     P=        1.55
   0.00001056   0.00000050   0.00000050            1.55        0.07        0.07
   0.00000050   0.00001056   0.00000050            0.07        1.55        0.07
   0.00000050   0.00000050   0.00001056            0.07        0.07        1.55

     Energy error            =      3.6E-07 Ry
     Gradient error          =      1.3E-04 Ry/Bohr
     Cell gradient error     =      1.6E+00 kbar

     number of scf cycles    =   6
     number of bfgs steps    =   5

     enthalpy           old  =     -24.0755872354 Ry
     enthalpy           new  =     -24.0755875986 Ry

     CASE: enthalpy          _new < enthalpy          _old

     new trust radius        =       0.0002702954 bohr
     new conv_thr            =       0.0000000100 Ry

     new unit-cell volume =     76.83758 a.u.^3 (    11.38615 Ang^3 )
     density =      3.50324 g/cm^3

CELL_PARAMETERS (alat=  6.75000000)
  -0.499879802  -0.000000000   0.499879802
   0.000027306   0.499907108   0.499907108
  -0.499879802   0.499879802  -0.000000000

ATOMIC_POSITIONS (alat)
C               -0.0050025434       -0.0050025434       -0.0050025434
C                0.2449645087        0.2449645087        0.2449645087



     Writing config-only to output data dir ./output/diamond.save/ :
     XML data file
     NEW-OLD atomic charge density approx. for the potential
     New effective cutoffs (rho, wfc):  312.08   78.02

     total cpu time spent up to now is        9.5 secs

     Self-consistent Calculation

     iteration #  1     ecut=    78.00 Ry     beta= 0.70
     Davidson diagonalization with overlap
     ethr =  1.00E-06,  avg # of iterations =  1.1

     Threshold (ethr) on eigenvalues was too large:
     Diagonalizing with lowered threshold

     Davidson diagonalization with overlap
     ethr =  5.34E-10,  avg # of iterations =  3.3

     total cpu time spent up to now is       10.0 secs

     total energy              =     -24.07558774 Ry
     estimated scf accuracy    <       0.00000003 Ry

     iteration #  2     ecut=    78.00 Ry     beta= 0.70
     Davidson diagonalization with overlap
     ethr =  3.56E-10,  avg # of iterations =  1.5

     total cpu time spent up to now is       10.2 secs

     End of self-consistent calculation

          k = 0.0000 0.0000 0.0000 (   893 PWs)   bands (ev):

    -8.1471  13.2917  13.2917  13.2928  18.9071  18.9071

          k =-0.1250 0.1250-0.1250 (   911 PWs)   bands (ev):

    -7.7164  10.8829  12.6400  12.6408  19.7593  19.7623

          k =-0.2501 0.2501-0.2501 (   896 PWs)   bands (ev):

    -6.4372   6.7124  11.5458  11.5467  21.1017  21.4438

          k =-0.3751 0.3751-0.3751 (   893 PWs)   bands (ev):

    -4.3776   2.6371  10.7619  10.7628  21.7100  21.9873

          k = 0.5001-0.5001 0.5001 (   886 PWs)   bands (ev):

    -2.3920  -0.0543  10.4888  10.4898  21.7905  22.1350

          k =-0.0000 0.2501-0.0000 (   897 PWs)   bands (ev):

    -7.5730  11.5712  11.5713  11.9654  18.4996  21.1121

          k =-0.1250 0.3751-0.1250 (   894 PWs)   bands (ev):

    -6.5768   8.2116  10.4212  11.2619  19.1570  22.6362

          k =-0.2501 0.5001-0.2501 (   892 PWs)   bands (ev):

    -4.7703   4.1916   9.7716  10.0961  20.3312  23.3616

          k = 0.6251-0.3751 0.6251 (   892 PWs)   bands (ev):

    -2.4465   0.7612   9.1446   9.7680  20.9488  23.5667

          k = 0.5001-0.2501 0.5001 (   889 PWs)   bands (ev):

    -3.2134   1.7625   8.7150  10.3820  21.5318  22.4893

          k = 0.3751-0.1250 0.3751 (   896 PWs)   bands (ev):

[...]
     C                 4.00    12.01070     C ( 1.00)

      6 Sym. Ops. (no inversion) found



   Cartesian axes

     site n.     atom                  positions (alat units)
         1        C      tau(   1) = (  -0.0050025  -0.0050025  -0.0050025  )
         2        C      tau(   2) = (   0.2449645   0.2449645   0.2449645  )

     number of k points=    65
                       cart. coord. in units 2pi/alat
        k(    1) = (   0.0000000   0.0000000   0.0000000), wk =   0.0039062
        k(    2) = (  -0.1250266   0.1250335  -0.1250266), wk =   0.0234375
        k(    3) = (  -0.2500533   0.2500669  -0.2500533), wk =   0.0234375
        k(    4) = (  -0.3750799   0.3751004  -0.3750799), wk =   0.0234375
        k(    5) = (   0.5001066  -0.5001339   0.5001066), wk =   0.0117188
        k(    6) = (  -0.0000068   0.2500533  -0.0000068), wk =   0.0234375
        k(    7) = (  -0.1250335   0.3750868  -0.1250335), wk =   0.0234375
        k(    8) = (  -0.2500601   0.5001202  -0.2500601), wk =   0.0234375
        k(    9) = (   0.6251264  -0.3751141   0.6251264), wk =   0.0234375
        k(   10) = (   0.5000997  -0.2500806   0.5000997), wk =   0.0234375
        k(   11) = (   0.3750731  -0.1250471   0.3750731), wk =   0.0234375
        k(   12) = (   0.2500465  -0.0000137   0.2500465), wk =   0.0234375
        k(   13) = (  -0.0000137   0.5001066  -0.0000137), wk =   0.0234375
        k(   14) = (  -0.1250403   0.6251400  -0.1250403), wk =   0.0234375
        k(   15) = (   0.7501462  -0.2500943   0.7501462), wk =   0.0234375
        k(   16) = (   0.6251196  -0.1250608   0.6251196), wk =   0.0234375
        k(   17) = (   0.5000929  -0.0000273   0.5000929), wk =   0.0234375
        k(   18) = (  -0.0000205   0.7501599  -0.0000205), wk =   0.0234375
        k(   19) = (   0.8751660  -0.1250744   0.8751660), wk =   0.0234375
        k(   20) = (   0.7501394  -0.0000410   0.7501394), wk =   0.0234375
        k(   21) = (   0.0000273  -1.0002131   0.0000273), wk =   0.0117188
        k(   22) = (  -0.2500669   0.5001134  -0.0000068), wk =   0.0468750
        k(   23) = (   0.6251196  -0.3751209   0.8751797), wk =   0.0468750
        k(   24) = (   0.5000929  -0.2500874   0.7501530), wk =   0.0468750
        k(   25) = (   0.7501394  -0.2501011   1.0001995), wk =   0.0468750
        k(   26) = (   0.6251127  -0.1250676   0.8751728), wk =   0.0468750
        k(   27) = (   0.5000861  -0.0000341   0.7501462), wk =   0.0468750
        k(   28) = (  -0.2500260  -1.0002063   0.0000341), wk =   0.0468750
        k(   29) = (  -0.5000793  -1.0001995   0.0000410), wk =   0.0234375
        k(   30) = (  -0.1250198  -0.1250198  -0.1250198), wk =   0.0078125
        k(   31) = (  -0.2500396  -0.2500396  -0.2500396), wk =   0.0078125
        k(   32) = (  -0.3750594  -0.3750594  -0.3750594), wk =   0.0078125
        k(   33) = (   0.5000793   0.5000793   0.5000793), wk =   0.0039062
        k(   34) = (   0.3750799   0.1250198  -0.1250403), wk =   0.0468750
        k(   35) = (  -0.3750731  -0.1250130  -0.1250130), wk =   0.0234375
        k(   36) = (   0.5001066   0.2500465  -0.2500738), wk =   0.0468750
        k(   37) = (  -0.5000929  -0.2500328  -0.2500328), wk =   0.0234375
        k(   38) = (  -0.3750799  -0.6251400   0.6251605), wk =   0.0468750
        k(   39) = (   0.3750458   0.6251059   0.6251059), wk =   0.0234375
        k(   40) = (  -0.2500533  -0.5001134   0.5001271), wk =   0.0468750
        k(   41) = (   0.2500260   0.5000861   0.5000861), wk =   0.0234375
        k(   42) = (  -0.1250266  -0.3750868   0.3750936), wk =   0.0468750
        k(   43) = (   0.1250062   0.3750663   0.3750663), wk =   0.0234375
        k(   44) = (   0.0000000  -0.2500601   0.2500601), wk =   0.0234375
        k(   45) = (   0.6251332   0.1250130  -0.1250471), wk =   0.0468750
        k(   46) = (  -0.6251264  -0.1250062  -0.1250062), wk =   0.0234375
        k(   47) = (  -0.2500533  -0.7501735   0.7501872), wk =   0.0468750
        k(   48) = (   0.2500123   0.7501325   0.7501325), wk =   0.0234375
        k(   49) = (  -0.1250266  -0.6251469   0.6251537), wk =   0.0468750
        k(   50) = (   0.1249925   0.6251127   0.6251127), wk =   0.0234375
        k(   51) = (   0.0000000  -0.5001202   0.5001202), wk =   0.0234375
        k(   52) = (  -0.1250266  -0.8752070   0.8752138), wk =   0.0468750
        k(   53) = (   0.1249788   0.8751592   0.8751592), wk =   0.0234375
        k(   54) = (   0.0000000  -0.7501803   0.7501803), wk =   0.0234375
        k(   55) = (   0.5000997   0.2500396  -0.0000205), wk =   0.0468750
        k(   56) = (  -0.3750868  -0.6251469   0.8752138), wk =   0.0468750
        k(   57) = (   0.3750390   0.6250991   0.8751592), wk =   0.0468750
        k(   58) = (  -0.8751933  -0.3750731   0.6251674), wk =   0.0468750
        k(   59) = (   0.2500191   0.5000793   0.7501394), wk =   0.0234375
        k(   60) = (  -0.7501667  -0.2500465   0.5001339), wk =   0.0234375
        k(   61) = (  -0.2500601  -0.7501803   1.0002405), wk =   0.0468750
        k(   62) = (  -0.1250335  -0.6251537   0.8752070), wk =   0.0468750
        k(   63) = (   0.1249857   0.6251059   0.8751660), wk =   0.0468750
        k(   64) = (  -0.8752002  -0.1250198   0.6251605), wk =   0.0468750
        k(   65) = (  -0.0000068  -0.5001271   0.7501735), wk =   0.0468750

     Dense  grid:     7119 G-vectors     FFT dimensions: (  27,  27,  27)

     Estimated max dynamical RAM per process >      11.13 MB

     Initial potential from superposition of free atoms

     starting charge       7.9999, renormalised to       8.0000
     Starting wfcs are    8 randomized atomic wfcs

     total cpu time spent up to now is       10.6 secs

     Self-consistent Calculation

     iteration #  1     ecut=    78.00 Ry     beta= 0.70
     Davidson diagonalization with overlap
     c_bands:  1 eigenvalues not converged
     c_bands:  1 eigenvalues not converged
     c_bands:  1 eigenvalues not converged
     c_bands:  1 eigenvalues not converged
     c_bands:  1 eigenvalues not converged
     c_bands:  1 eigenvalues not converged
     c_bands:  1 eigenvalues not converged
     c_bands:  2 eigenvalues not converged
     c_bands:  1 eigenvalues not converged
     c_bands:  1 eigenvalues not converged
     c_bands:  1 eigenvalues not converged
     c_bands:  1 eigenvalues not converged
     c_bands:  1 eigenvalues not converged
     c_bands:  2 eigenvalues not converged
     c_bands:  1 eigenvalues not converged
     c_bands:  1 eigenvalues not converged
     c_bands:  1 eigenvalues not converged
     c_bands:  1 eigenvalues not converged
     c_bands:  1 eigenvalues not converged
     c_bands:  1 eigenvalues not converged
     c_bands:  1 eigenvalues not converged
     c_bands:  1 eigenvalues not converged
     c_bands:  1 eigenvalues not converged
     c_bands:  1 eigenvalues not converged
     c_bands:  1 eigenvalues not converged
     ethr =  1.00E-06,  avg # of iterations = 17.0

     total cpu time spent up to now is       11.6 secs

     total energy              =     -24.06714760 Ry
     estimated scf accuracy    <       0.11600221 Ry

     iteration #  2     ecut=    78.00 Ry     beta= 0.70
     Davidson diagonalization with overlap
     ethr =  1.45E-03,  avg # of iterations =  1.0

     total cpu time spent up to now is       11.8 secs

     total energy              =     -24.07497266 Ry
     estimated scf accuracy    <       0.00237551 Ry

     iteration #  3     ecut=    78.00 Ry     beta= 0.70
     Davidson diagonalization with overlap
     ethr =  2.97E-05,  avg # of iterations =  2.7

     total cpu time spent up to now is       12.2 secs

     total energy              =     -24.07556692 Ry
     estimated scf accuracy    <       0.00009503 Ry

     iteration #  4     ecut=    78.00 Ry     beta= 0.70
     Davidson diagonalization with overlap
     c_bands:  1 eigenvalues not converged
     ethr =  1.19E-06,  avg # of iterations =  4.3

     total cpu time spent up to now is       12.5 secs

     total energy              =     -24.07558646 Ry
     estimated scf accuracy    <       0.00000164 Ry

     iteration #  5     ecut=    78.00 Ry     beta= 0.70
     Davidson diagonalization with overlap
     ethr =  2.05E-08,  avg # of iterations =  3.4

     total cpu time spent up to now is       12.8 secs

     total energy              =     -24.07558737 Ry
     estimated scf accuracy    <       0.00000007 Ry

     iteration #  6     ecut=    78.00 Ry     beta= 0.70
     Davidson diagonalization with overlap
     ethr =  8.45E-10,  avg # of iterations =  2.6

     total cpu time spent up to now is       13.1 secs

     End of self-consistent calculation

          k = 0.0000 0.0000 0.0000 (   893 PWs)   bands (ev):

    -8.1472  13.2916  13.2916  13.2927  18.9054  18.9070

          k =-0.1250 0.1250-0.1250 (   911 PWs)   bands (ev):

    -7.7165  10.8827  12.6398  12.6407  19.7592  19.7623

          k =-0.2501 0.2501-0.2501 (   896 PWs)   bands (ev):

    -6.4373   6.7123  11.5457  11.5465  21.1016  21.1047

          k =-0.3751 0.3751-0.3751 (   893 PWs)   bands (ev):

    -4.3777   2.6370  10.7617  10.7627  21.7101  21.7132

          k = 0.5001-0.5001 0.5001 (   886 PWs)   bands (ev):

    -2.3921  -0.0544  10.4887  10.4897  21.7904  21.7943

          k =-0.0000 0.2501-0.0000 (   897 PWs)   bands (ev):

    -7.5731  11.5711  11.5712  11.9652  18.4995  21.1124

          k =-0.1250 0.3751-0.1250 (   894 PWs)   bands (ev):

    -6.5769   8.2115  10.4211  11.2618  19.1569  22.7222

          k =-0.2501 0.5001-0.2501 (   892 PWs)   bands (ev):

    -4.7704   4.1915   9.7714  10.0960  20.3311  23.3893

          k = 0.6251-0.3751 0.6251 (   892 PWs)   bands (ev):

    -2.4466   0.7612   9.1444   9.7679  20.9487  23.1392

          k = 0.5001-0.2501 0.5001 (   889 PWs)   bands (ev):

    -3.2135   1.7624   8.7149  10.3819  21.5317  22.4892

          k = 0.3751-0.1250 0.3751 (   896 PWs)   bands (ev):

    -5.4584   5.5402   8.9332  11.4505  21.4363  21.9555

          k = 0.2500-0.0000 0.2500 (   903 PWs)   bands (ev):

    -7.0029   9.3129  10.0489  12.5323  20.0628  21.4763

          k =-0.0000 0.5001-0.0000 (   881 PWs)   bands (ev):

    -5.8697   8.7755   9.1755   9.1761  17.7717  23.5800

          k =-0.1250 0.6251-0.1250 (   887 PWs)   bands (ev):

    -4.3439   5.7799   8.0777   8.4452  18.5047  22.6771

          k = 0.7501-0.2501 0.7501 (   892 PWs)   bands (ev):

    -2.1434   2.5196   6.5628   8.4190  19.4194  24.7463

          k = 0.6251-0.1251 0.6251 (   890 PWs)   bands (ev):

    -1.4497   1.7234   5.5622   9.0909  20.1875  25.0731

          k = 0.5001-0.0000 0.5001 (   889 PWs)   bands (ev):

    -3.6935   4.6001   5.7013  10.2804  21.2589  23.3112

          k =-0.0000 0.7502-0.0000 (   886 PWs)   bands (ev):

    -3.1078   4.7125   7.5574   7.5582  17.4725  20.0830

          k = 0.8752-0.1251 0.8752 (   899 PWs)   bands (ev):

    -1.1511   2.6289   5.9630   7.3750  18.3200  20.3473

          k = 0.7501-0.0000 0.7501 (   890 PWs)   bands (ev):

     0.3238   1.5718   4.0003   7.9323  19.0237  24.0603

          k = 0.0000-1.0002 0.0000 (   894 PWs)   bands (ev):

     0.5413   0.5421   6.9978   6.9986  18.1079  18.1098

          k =-0.2501 0.5001-0.0000 (   893 PWs)   bands (ev):

    -5.3151   6.7868   7.8022  10.4066  19.8922  23.3492

          k = 0.6251-0.3751 0.8752 (   892 PWs)   bands (ev):

    -3.2955   3.4592   7.0223   9.2154  21.2927  22.9547

          k = 0.5001-0.2501 0.7502 (   890 PWs)   bands (ev):

    -1.3839   0.9514   6.9860   8.6102  21.6368  22.7598

          k = 0.7501-0.2501 1.0002 (   896 PWs)   bands (ev):

    -2.6004   4.2837   6.3114   7.3629  19.6529  21.9409

          k = 0.6251-0.1251 0.8752 (   895 PWs)   bands (ev):

    -0.4153   2.1347   4.8984   6.9555  20.8669  24.2249

          k = 0.5001-0.0000 0.7501 (   895 PWs)   bands (ev):

    -1.2048   2.8948   4.4449   7.8273  21.7046  24.0784

          k =-0.2500-1.0002 0.0000 (   896 PWs)   bands (ev):

     0.8765   0.8777   5.9909   5.9914  20.2105  20.2126

          k =-0.5001-1.0002 0.0000 (   892 PWs)   bands (ev):

     1.3253   1.3270   4.9907   4.9910  23.9565  23.9572

          k =-0.1250-0.1250-0.1250 (   911 PWs)   bands (ev):

    -7.7165  10.8824  12.6402  12.6402  19.7617  19.7617

          k =-0.2500-0.2500-0.2500 (   896 PWs)   bands (ev):

    -6.4376   6.7115  11.5466  11.5466  21.1034  21.1034

          k =-0.3751-0.3751-0.3751 (   893 PWs)   bands (ev):

    -4.3784   2.6365  10.7630  10.7630  21.7118  21.7118

          k = 0.5001 0.5001 0.5001 (   886 PWs)   bands (ev):

    -2.3938  -0.0538  10.4900  10.4900  21.7924  21.7924

          k = 0.3751 0.1250-0.1250 (   894 PWs)   bands (ev):

    -6.5770   8.2121  10.4210  11.2607  19.1576  22.6424

          k =-0.3751-0.1250-0.1250 (   894 PWs)   bands (ev):

    -6.5771   8.2114  10.4216  11.2609  19.1580  22.6510

          k = 0.5001 0.2500-0.2501 (   892 PWs)   bands (ev):

    -4.7706   4.1920   9.7715  10.0950  20.3313  23.4011

          k =-0.5001-0.2500-0.2500 (   892 PWs)   bands (ev):

    -4.7710   4.1913   9.7723  10.0957  20.3320  23.3974

          k =-0.3751-0.6251 0.6252 (   892 PWs)   bands (ev):

    -2.4467   0.7615   9.1438   9.7682  20.9486  23.1374

          k = 0.3750 0.6251 0.6251 (   892 PWs)   bands (ev):

    -2.4480   0.7616   9.1447   9.7689  20.9495  23.1385

          k =-0.2501-0.5001 0.5001 (   889 PWs)   bands (ev):

    -3.2132   1.7621   8.7147  10.3824  21.5314  22.4871

          k = 0.2500 0.5001 0.5001 (   889 PWs)   bands (ev):

    -3.2142   1.7620   8.7155  10.3828  21.5323  22.4884

          k =-0.1250-0.3751 0.3751 (   896 PWs)   bands (ev):

    -5.4582   5.5397   8.9335  11.4511  21.4340  21.9550

          k = 0.1250 0.3751 0.3751 (   896 PWs)   bands (ev):

    -5.4586   5.5393   8.9340  11.4511  21.4356  21.9558

          k = 0.0000-0.2501 0.2501 (   903 PWs)   bands (ev):

    -7.0028   9.3124  10.0495  12.5329  20.0607  21.3690

          k = 0.6251 0.1250-0.1250 (   887 PWs)   bands (ev):

    -4.3441   5.7811   8.0768   8.4447  18.5046  22.6782

          k =-0.6251-0.1250-0.1250 (   887 PWs)   bands (ev):

    -4.3443   5.7808   8.0764   8.4455  18.5053  22.6778

          k =-0.2501-0.7502 0.7502 (   892 PWs)   bands (ev):

    -2.1436   2.5206   6.5621   8.4186  19.4183  24.7491

          k = 0.2500 0.7501 0.7501 (   892 PWs)   bands (ev):

    -2.1444   2.5205   6.5624   8.4194  19.4198  24.7472

          k =-0.1250-0.6251 0.6252 (   890 PWs)   bands (ev):

    -1.4491   1.7231   5.5621   9.0907  20.1863  25.0718

          k = 0.1250 0.6251 0.6251 (   890 PWs)   bands (ev):

    -1.4505   1.7237   5.5625   9.0912  20.1877  25.0730

          k = 0.0000-0.5001 0.5001 (   889 PWs)   bands (ev):

    -3.6929   4.5994   5.7017  10.2804  21.2579  23.3095

          k =-0.1250-0.8752 0.8752 (   899 PWs)   bands (ev):

    -1.1513   2.6295   5.9631   7.3743  18.3187  20.3492

          k = 0.1250 0.8752 0.8752 (   899 PWs)   bands (ev):

    -1.1516   2.6299   5.9623   7.3752  18.3202  20.3476

          k = 0.0000-0.7502 0.7502 (   890 PWs)   bands (ev):

     0.3251   1.5711   4.0002   7.9317  19.0221  24.0629

          k = 0.5001 0.2500-0.0000 (   893 PWs)   bands (ev):

    -5.3153   6.7875   7.8018  10.4061  19.8932  23.3498

          k =-0.3751-0.6251 0.8752 (   892 PWs)   bands (ev):

    -3.2959   3.4600   7.0219   9.2150  21.2929  22.9551

          k = 0.3750 0.6251 0.8752 (   892 PWs)   bands (ev):

    -3.2963   3.4595   7.0224   9.2156  21.2936  22.9551

          k =-0.8752-0.3751 0.6252 (   892 PWs)   bands (ev):

    -3.2956   3.4597   7.0214   9.2157  21.2924  22.9533

          k = 0.2500 0.5001 0.7501 (   890 PWs)   bands (ev):

    -1.3855   0.9522   6.9861   8.6111  21.6380  22.7600

          k =-0.7502-0.2500 0.5001 (   890 PWs)   bands (ev):

    -1.3838   0.9515   6.9848   8.6112  21.6374  22.7565

          k =-0.2501-0.7502 1.0002 (   896 PWs)   bands (ev):

    -2.6008   4.2847   6.3112   7.3623  19.6534  21.9412

          k =-0.1250-0.6252 0.8752 (   895 PWs)   bands (ev):

    -0.4157   2.1357   4.8981   6.9550  20.8655  24.2269

          k = 0.1250 0.6251 0.8752 (   895 PWs)   bands (ev):

    -0.4166   2.1363   4.8977   6.9557  20.8671  24.2249

          k =-0.8752-0.1250 0.6252 (   895 PWs)   bands (ev):

    -0.4152   2.1355   4.8973   6.9557  20.8652  24.2265

          k =-0.0000-0.5001 0.7502 (   895 PWs)   bands (ev):

    -1.2038   2.8939   4.4450   7.8272  21.7033  24.0777

     highest occupied, lowest unoccupied level (ev):    13.2927   17.4725

!    total energy              =     -24.07558739 Ry
     estimated scf accuracy    <          1.1E-09 Ry

     The total energy is the sum of the following terms:
     one-electron contribution =       8.20513030 Ry
     hartree contribution      =       1.93605401 Ry
     xc contribution           =      -8.67391589 Ry
     ewald contribution        =     -25.54285581 Ry

     convergence has been achieved in   6 iterations

     Forces acting on atoms (cartesian axes, Ry/au):

     atom    1 type  1   force =     0.00004022    0.00004022    0.00004022
     atom    2 type  1   force =    -0.00004022   -0.00004022   -0.00004022

     Total force =     0.000099     Total SCF correction =     0.000003


     Computing stress (Cartesian axis) and pressure

          total   stress  (Ry/bohr**3)                   (kbar)     P=       -0.42
  -0.00000282  -0.00000215  -0.00000215           -0.42       -0.32       -0.32
  -0.00000215  -0.00000282  -0.00000215           -0.32       -0.42       -0.32
  -0.00000215  -0.00000215  -0.00000282           -0.32       -0.32       -0.42


     Writing all to output data dir ./output/diamond.save/ :
     XML data file, charge density, pseudopotentials, collected wavefunctions

     init_run     :      0.43s CPU      0.48s WALL (       2 calls)
     electrons    :     11.18s CPU     11.41s WALL (       8 calls)
     update_pot   :      0.03s CPU      0.03s WALL (       6 calls)
     forces       :      0.24s CPU      0.26s WALL (       8 calls)
     stress       :      0.99s CPU      1.02s WALL (       8 calls)

     Called by init_run:
     wfcinit      :      0.27s CPU      0.30s WALL (       2 calls)
     potinit      :      0.03s CPU      0.03s WALL (       2 calls)
     hinit0       :      0.12s CPU      0.13s WALL (       2 calls)

     Called by electrons:
     c_bands      :      9.82s CPU     10.03s WALL (      33 calls)
     sum_band     :      1.23s CPU      1.25s WALL (      33 calls)
     v_of_rho     :      0.13s CPU      0.14s WALL (      37 calls)
     mix_rho      :      0.01s CPU      0.01s WALL (      33 calls)

     Called by c_bands:
     init_us_2    :      0.34s CPU      0.34s WALL (    5460 calls)
     cegterg      :      9.45s CPU      9.64s WALL (    2145 calls)

     Called by *egterg:
     cdiaghg      :      0.21s CPU      0.21s WALL (    9342 calls)
     h_psi        :      8.02s CPU      8.21s WALL (   10122 calls)
     g_psi        :      0.05s CPU      0.06s WALL (    7847 calls)

     Called by h_psi:
     h_psi:calbec :      0.51s CPU      0.52s WALL (   10122 calls)
     vloc_psi     :      7.03s CPU      7.19s WALL (   10122 calls)
     add_vuspsi   :      0.44s CPU      0.45s WALL (   10122 calls)

     General routines
     calbec       :      1.13s CPU      1.15s WALL (   18962 calls)
     fft          :      0.12s CPU      0.13s WALL (     572 calls)
     ffts         :      0.00s CPU      0.00s WALL (      33 calls)
     fftw         :      7.22s CPU      7.38s WALL (   98576 calls)

     Parallel routines

     PWSCF        :     12.91s CPU     13.25s WALL


   This run was terminated on:  12:44:31  27Nov2025            

=------------------------------------------------------------------------------=
   JOB DONE.
=------------------------------------------------------------------------------=
