
     Program PWSCF v.7.3.1 starts on 27Nov2025 at 12:40: 1 

     This program is part of the open-source Quantum ESPRESSO suite
     for quantum simulation of materials; please cite
         "P. Giannozzi et al., J. Phys.:Condens. Matter 21 395502 (2009);
         "P. Giannozzi et al., J. Phys.:Condens. Matter 29 465901 (2017);
         "P. Giannozzi et al., J. Chem. Phys. 152 154105 (2020);
          URL http://www.quantum-espresso.org", 
     in publications or presentations arising from this work. More details at
     http://www.quantum-espresso.org/quote

     Parallel version (MPI), running on     1 processors

     MPI processes distributed on     1 nodes
     2013 MiB available memory on the printing compute node when the environment starts

     Waiting for input...
     Reading input from standard input

     Current dimensions of program PWSCF are:
     Max number of different atomic species (ntypx) = 10
     Max number of k-points (npk) =  40000
     Max angular momentum in pseudopotentials (lmaxx) =  4

     Subspace diagonalization in iterative solution of the eigenvalue problem:
     a serial algorithm will be used


     G-vector sticks info
     --------------------
     sticks:   dense  smooth     PW     G-vecs:    dense   smooth      PW
     Sum         499     499    163                 7239     7239    1291

     Using Slab Decomposition



     bravais-lattice index     =            2
     lattice parameter (alat)  =       6.7500  a.u.
     unit-cell volume          =      76.8867 (a.u.)^3
     number of atoms/cell      =            2
     number of atomic types    =            1
     number of electrons       =         8.00
     number of Kohn-Sham states=            6
     kinetic-energy cutoff     =      78.0000  Ry
     charge density cutoff     =     312.0000  Ry
     scf convergence threshold =      1.0E-06
     mixing beta               =       0.7000
     number of iterations used =            8  plain     mixing
     energy convergence thresh.=      1.0E-04
     force convergence thresh. =      1.0E-03
     Exchange-correlation= PBE
                           (   1   4   3   4   0   0   0)
     nstep                     =           50


     celldm(1)=   6.750000  celldm(2)=   0.000000  celldm(3)=   0.000000
     celldm(4)=   0.000000  celldm(5)=   0.000000  celldm(6)=   0.000000

     crystal axes: (cart. coord. in units of alat)
               a(1) = (  -0.500000   0.000000   0.500000 )  
               a(2) = (   0.000000   0.500000   0.500000 )  
               a(3) = (  -0.500000   0.500000   0.000000 )  

     reciprocal axes: (cart. coord. in units 2 pi/alat)
               b(1) = ( -1.000000 -1.000000  1.000000 )  
               b(2) = (  1.000000  1.000000  1.000000 )  
               b(3) = ( -1.000000  1.000000 -1.000000 )  


     PseudoPot. # 1 for C  read from file:
     ./pseudo/C.upf
     MD5 check sum: 34a24e64c0a39f27c6c36b90a16ac686
     Pseudo is Norm-conserving + core correction, Zval =  4.0
     Generated using ONCVPSP code by D. R. Hamann
     Using radial grid of 1248 points,  4 beta functions with: 
                l(1) =   0
                l(2) =   0
                l(3) =   1
                l(4) =   1

     atomic species   valence    mass     pseudopotential
     C                 4.00    12.01070     C ( 1.00)

      6 Sym. Ops. (no inversion) found



   Cartesian axes

     site n.     atom                  positions (alat units)
         1        C      tau(   1) = (   0.0000000   0.0000000   0.0000000  )
         2        C      tau(   2) = (   0.2400000   0.2400000   0.2400000  )

     number of k points=    65
                       cart. coord. in units 2pi/alat
        k(    1) = (   0.0000000   0.0000000   0.0000000), wk =   0.0039062
        k(    2) = (  -0.1250000   0.1250000  -0.1250000), wk =   0.0234375
        k(    3) = (  -0.2500000   0.2500000  -0.2500000), wk =   0.0234375
        k(    4) = (  -0.3750000   0.3750000  -0.3750000), wk =   0.0234375
        k(    5) = (   0.5000000  -0.5000000   0.5000000), wk =   0.0117188
        k(    6) = (   0.0000000   0.2500000   0.0000000), wk =   0.0234375
        k(    7) = (  -0.1250000   0.3750000  -0.1250000), wk =   0.0234375
        k(    8) = (  -0.2500000   0.5000000  -0.2500000), wk =   0.0234375
        k(    9) = (   0.6250000  -0.3750000   0.6250000), wk =   0.0234375
        k(   10) = (   0.5000000  -0.2500000   0.5000000), wk =   0.0234375
        k(   11) = (   0.3750000  -0.1250000   0.3750000), wk =   0.0234375
        k(   12) = (   0.2500000   0.0000000   0.2500000), wk =   0.0234375
        k(   13) = (   0.0000000   0.5000000   0.0000000), wk =   0.0234375
        k(   14) = (  -0.1250000   0.6250000  -0.1250000), wk =   0.0234375
        k(   15) = (   0.7500000  -0.2500000   0.7500000), wk =   0.0234375
        k(   16) = (   0.6250000  -0.1250000   0.6250000), wk =   0.0234375
        k(   17) = (   0.5000000   0.0000000   0.5000000), wk =   0.0234375
        k(   18) = (   0.0000000   0.7500000   0.0000000), wk =   0.0234375
        k(   19) = (   0.8750000  -0.1250000   0.8750000), wk =   0.0234375
        k(   20) = (   0.7500000   0.0000000   0.7500000), wk =   0.0234375
        k(   21) = (   0.0000000  -1.0000000   0.0000000), wk =   0.0117188
        k(   22) = (  -0.2500000   0.5000000   0.0000000), wk =   0.0468750
        k(   23) = (   0.6250000  -0.3750000   0.8750000), wk =   0.0468750
        k(   24) = (   0.5000000  -0.2500000   0.7500000), wk =   0.0468750
        k(   25) = (   0.7500000  -0.2500000   1.0000000), wk =   0.0468750
        k(   26) = (   0.6250000  -0.1250000   0.8750000), wk =   0.0468750
        k(   27) = (   0.5000000   0.0000000   0.7500000), wk =   0.0468750
        k(   28) = (  -0.2500000  -1.0000000   0.0000000), wk =   0.0468750
        k(   29) = (  -0.5000000  -1.0000000   0.0000000), wk =   0.0234375
        k(   30) = (  -0.1250000  -0.1250000  -0.1250000), wk =   0.0078125
        k(   31) = (  -0.2500000  -0.2500000  -0.2500000), wk =   0.0078125
        k(   32) = (  -0.3750000  -0.3750000  -0.3750000), wk =   0.0078125
        k(   33) = (   0.5000000   0.5000000   0.5000000), wk =   0.0039062
        k(   34) = (   0.3750000   0.1250000  -0.1250000), wk =   0.0468750
        k(   35) = (  -0.3750000  -0.1250000  -0.1250000), wk =   0.0234375
        k(   36) = (   0.5000000   0.2500000  -0.2500000), wk =   0.0468750
        k(   37) = (  -0.5000000  -0.2500000  -0.2500000), wk =   0.0234375
        k(   38) = (  -0.3750000  -0.6250000   0.6250000), wk =   0.0468750
        k(   39) = (   0.3750000   0.6250000   0.6250000), wk =   0.0234375
        k(   40) = (  -0.2500000  -0.5000000   0.5000000), wk =   0.0468750
        k(   41) = (   0.2500000   0.5000000   0.5000000), wk =   0.0234375
        k(   42) = (  -0.1250000  -0.3750000   0.3750000), wk =   0.0468750
        k(   43) = (   0.1250000   0.3750000   0.3750000), wk =   0.0234375
        k(   44) = (   0.0000000  -0.2500000   0.2500000), wk =   0.0234375
        k(   45) = (   0.6250000   0.1250000  -0.1250000), wk =   0.0468750
        k(   46) = (  -0.6250000  -0.1250000  -0.1250000), wk =   0.0234375
        k(   47) = (  -0.2500000  -0.7500000   0.7500000), wk =   0.0468750
        k(   48) = (   0.2500000   0.7500000   0.7500000), wk =   0.0234375
        k(   49) = (  -0.1250000  -0.6250000   0.6250000), wk =   0.0468750
        k(   50) = (   0.1250000   0.6250000   0.6250000), wk =   0.0234375
        k(   51) = (   0.0000000  -0.5000000   0.5000000), wk =   0.0234375
        k(   52) = (  -0.1250000  -0.8750000   0.8750000), wk =   0.0468750
        k(   53) = (   0.1250000   0.8750000   0.8750000), wk =   0.0234375
        k(   54) = (   0.0000000  -0.7500000   0.7500000), wk =   0.0234375
        k(   55) = (   0.5000000   0.2500000   0.0000000), wk =   0.0468750
        k(   56) = (  -0.3750000  -0.6250000   0.8750000), wk =   0.0468750
        k(   57) = (   0.3750000   0.6250000   0.8750000), wk =   0.0468750
        k(   58) = (  -0.8750000  -0.3750000   0.6250000), wk =   0.0468750
        k(   59) = (   0.2500000   0.5000000   0.7500000), wk =   0.0234375
        k(   60) = (  -0.7500000  -0.2500000   0.5000000), wk =   0.0234375
        k(   61) = (  -0.2500000  -0.7500000   1.0000000), wk =   0.0468750
        k(   62) = (  -0.1250000  -0.6250000   0.8750000), wk =   0.0468750
        k(   63) = (   0.1250000   0.6250000   0.8750000), wk =   0.0468750
        k(   64) = (  -0.8750000  -0.1250000   0.6250000), wk =   0.0468750
        k(   65) = (   0.0000000  -0.5000000   0.7500000), wk =   0.0468750

     Dense  grid:     7239 G-vectors     FFT dimensions: (  27,  27,  27)

     Estimated max dynamical RAM per process >      10.72 MB

     Initial potential from superposition of free atoms

     starting charge       7.9999, renormalised to       8.0000
     Starting wfcs are    8 randomized atomic wfcs

     total cpu time spent up to now is        0.3 secs

     Self-consistent Calculation

     iteration #  1     ecut=    78.00 Ry     beta= 0.70
     Davidson diagonalization with overlap
     ethr =  1.00E-02,  avg # of iterations =  3.1

     total cpu time spent up to now is        0.7 secs

     total energy              =     -24.06306956 Ry
     estimated scf accuracy    <       0.10996310 Ry

     iteration #  2     ecut=    78.00 Ry     beta= 0.70
     Davidson diagonalization with overlap
     ethr =  1.37E-03,  avg # of iterations =  1.4

     total cpu time spent up to now is        0.9 secs

     total energy              =     -24.06918212 Ry
     estimated scf accuracy    <       0.00312604 Ry

     iteration #  3     ecut=    78.00 Ry     beta= 0.70
     Davidson diagonalization with overlap
     ethr =  3.91E-05,  avg # of iterations =  5.1

     total cpu time spent up to now is        1.3 secs

     total energy              =     -24.06998407 Ry
     estimated scf accuracy    <       0.00008213 Ry

     iteration #  4     ecut=    78.00 Ry     beta= 0.70
     Davidson diagonalization with overlap
     c_bands:  1 eigenvalues not converged
     ethr =  1.03E-06,  avg # of iterations =  5.3

     total cpu time spent up to now is        1.7 secs

     total energy              =     -24.07001073 Ry
     estimated scf accuracy    <       0.00000717 Ry

     iteration #  5     ecut=    78.00 Ry     beta= 0.70
     Davidson diagonalization with overlap
     c_bands:  1 eigenvalues not converged
     ethr =  8.96E-08,  avg # of iterations =  2.1

     total cpu time spent up to now is        2.0 secs

     End of self-consistent calculation

          k = 0.0000 0.0000 0.0000 (   893 PWs)   bands (ev):

    -8.1595  12.1982  13.8444  13.8444  18.3721  18.3722

          k =-0.1250 0.1250-0.1250 (   911 PWs)   bands (ev):

    -7.7291  10.8826  12.0402  13.1584  19.1688  19.6476

          k =-0.2500 0.2500-0.2500 (   896 PWs)   bands (ev):

    -6.4521   6.7928  10.8915  12.0609  20.2827  20.9648

          k =-0.3750 0.3750-0.3750 (   893 PWs)   bands (ev):

    -4.4039   2.7139  10.1352  11.2963  20.6891  21.5974

          k = 0.5000-0.5000 0.5000 (   886 PWs)   bands (ev):

    -2.4831   0.0817   9.8695  11.0330  20.7100  21.7607

          k = 0.0000 0.2500 0.0000 (   897 PWs)   bands (ev):

    -7.5861  10.8337  11.8871  12.3326  18.3127  20.7992

          k =-0.1250 0.3750-0.1250 (   894 PWs)   bands (ev):

    -6.5911   8.3872  10.5906  10.7511  19.1817  22.1817

          k =-0.2500 0.5000-0.2500 (   892 PWs)   bands (ev):

    -4.7925   4.3150   9.4961  10.1400  20.5063  22.5981

          k = 0.6250-0.3750 0.6250 (   892 PWs)   bands (ev):

    -2.5166   0.8913   8.6196  10.1811  21.1947  22.2026

          k = 0.5000-0.2500 0.5000 (   889 PWs)   bands (ev):

    -3.2502   1.8356   8.2456  10.8355  21.5459  21.6946

          k = 0.3750-0.1250 0.3750 (   896 PWs)   bands (ev):

    -5.4756   5.5536   8.5250  11.9288  20.6491  21.9197

          k = 0.2500 0.0000 0.2500 (   903 PWs)   bands (ev):

    -7.0174   8.8136  10.1619  12.9965  19.5440  21.2896

          k = 0.0000 0.5000 0.0000 (   881 PWs)   bands (ev):

    -5.8855   8.3253   9.3745   9.3774  17.6765  23.3919

          k =-0.1250 0.6250-0.1250 (   887 PWs)   bands (ev):

    -4.3660   6.1014   7.4355   8.6729  18.6007  22.3913

          k = 0.7500-0.2500 0.7500 (   892 PWs)   bands (ev):

    -2.1974   2.7261   6.0848   8.6737  19.6549  24.1759

          k = 0.6250-0.1250 0.6250 (   890 PWs)   bands (ev):

    -1.4996   1.8223   5.2172   9.3692  20.4001  24.3769

          k = 0.5000 0.0000 0.5000 (   889 PWs)   bands (ev):

    -3.7062   4.3024   5.7356  10.5694  21.4276  22.8284

          k = 0.0000 0.7500 0.0000 (   886 PWs)   bands (ev):

    -3.1304   4.6374   7.4349   7.7198  17.3863  20.0248

          k = 0.8750-0.1250 0.8750 (   899 PWs)   bands (ev):

    -1.2023   2.7247   5.6757   7.5495  18.4949  20.0268

          k = 0.7500 0.0000 0.7500 (   890 PWs)   bands (ev):

     0.4085   1.3738   3.8905   8.1139  19.1941  23.7161

          k = 0.0000-1.0000 0.0000 (   934 PWs)   bands (ev):

     0.3395   0.6807   6.8532   7.1497  17.8191  18.2677

          k =-0.2500 0.5000 0.0000 (   893 PWs)   bands (ev):

    -5.3330   7.0703   7.6607  10.1353  19.8256  23.2393

          k = 0.6250-0.3750 0.8750 (   892 PWs)   bands (ev):

    -3.3306   3.6244   6.8754   9.1226  21.4918  22.4789

          k = 0.5000-0.2500 0.7500 (   890 PWs)   bands (ev):

    -1.4830   1.1100   6.6658   8.8204  21.6807  22.4107

          k = 0.7500-0.2500 1.0000 (   896 PWs)   bands (ev):

    -2.6359   4.4517   6.2002   7.2502  19.6095  21.7800

          k = 0.6250-0.1250 0.8750 (   895 PWs)   bands (ev):

    -0.5109   2.3783   4.4984   7.1464  21.1136  23.5110

          k = 0.5000 0.0000 0.7500 (   895 PWs)   bands (ev):

    -1.1943   2.6471   4.4324   8.0473  21.9140  23.7596

          k =-0.2500-1.0000 0.0000 (   896 PWs)   bands (ev):

     0.6462   1.0413   5.8284   6.1612  19.8785  20.3903

          k =-0.5000-1.0000 0.0000 (   892 PWs)   bands (ev):

     1.0403   1.5438   4.7836   5.2051  23.2497  24.2761

          k =-0.1250-0.1250-0.1250 (   911 PWs)   bands (ev):

    -7.7300  10.1851  13.0122  13.0122  19.4560  19.4561

          k =-0.2500-0.2500-0.2500 (   896 PWs)   bands (ev):

    -6.4528   6.2982  11.7485  11.7485  21.0920  21.0921

          k =-0.3750-0.3750-0.3750 (   893 PWs)   bands (ev):

    -4.3778   2.3224  10.8858  10.8858  21.8760  21.8772

          k = 0.5000 0.5000 0.5000 (   886 PWs)   bands (ev):

    -2.2042  -0.5251  10.5899  10.5899  22.0027  22.0038

          k = 0.3750 0.1250-0.1250 (   894 PWs)   bands (ev):

    -6.5915   8.2385  10.0383  11.5817  18.9027  22.3475

          k =-0.3750-0.1250-0.1250 (   894 PWs)   bands (ev):

    -6.5922   7.6977  10.6051  11.6138  19.0211  22.6927

          k = 0.5000 0.2500-0.2500 (   892 PWs)   bands (ev):

    -4.7914   4.2489   9.2993  10.4940  19.8555  23.0775

          k =-0.5000-0.2500-0.2500 (   892 PWs)   bands (ev):

    -4.7807   3.8430   9.8974  10.2924  20.3910  23.4283

          k =-0.3750-0.6250 0.6250 (   892 PWs)   bands (ev):

    -2.5123   0.8684   8.9482   9.8668  20.3396  23.2633

          k = 0.3750 0.6250 0.6250 (   892 PWs)   bands (ev):

    -2.3494   0.3667   9.2674   9.8849  21.1091  23.2949

          k =-0.2500-0.5000 0.5000 (   889 PWs)   bands (ev):

    -3.2557   1.8607   8.7250  10.2168  20.8071  23.0653

          k = 0.2500 0.5000 0.5000 (   889 PWs)   bands (ev):

    -3.1860   1.4262   8.8207  10.5379  21.7072  22.5381

          k =-0.1250-0.3750 0.3750 (   896 PWs)   bands (ev):

    -5.4760   5.6530   8.9568  11.1743  20.9099  22.4047

          k = 0.1250 0.3750 0.3750 (   896 PWs)   bands (ev):

    -5.4727   5.1530   9.0701  11.7145  21.2405  22.0503

          k = 0.0000-0.2500 0.2500 (   903 PWs)   bands (ev):

    -7.0161   9.6621   9.8276  12.2196  20.0323  20.8730

          k = 0.6250 0.1250-0.1250 (   887 PWs)   bands (ev):

    -4.3641   5.7516   7.9565   8.5584  18.2944  22.6783

          k =-0.6250-0.1250-0.1250 (   887 PWs)   bands (ev):

    -4.3588   5.3463   8.3592   8.5898  18.4487  22.5507

          k =-0.2500-0.7500 0.7500 (   892 PWs)   bands (ev):

    -2.1881   2.5767   6.6158   8.2868  19.0606  24.8098

          k = 0.2500 0.7500 0.7500 (   892 PWs)   bands (ev):

    -2.1108   2.1355   6.7402   8.5564  19.5284  24.4700

          k =-0.1250-0.6250 0.6250 (   890 PWs)   bands (ev):

    -1.5344   1.8646   5.6097   8.8895  19.7808  25.6618

          k = 0.1250 0.6250 0.6250 (   890 PWs)   bands (ev):

    -1.3537   1.2943   5.6882   9.2695  20.3551  24.9028

          k = 0.0000-0.5000 0.5000 (   889 PWs)   bands (ev):

    -3.7229   4.8335   5.6200  10.0193  20.7299  24.0992

          k =-0.1250-0.8750 0.8750 (   899 PWs)   bands (ev):

    -1.1909   2.5975   6.1189   7.2292  18.0494  20.4692

          k = 0.1250 0.8750 0.8750 (   899 PWs)   bands (ev):

    -1.1525   2.4526   5.9493   7.5231  18.3712  20.1615

          k = 0.0000-0.7500 0.7500 (   890 PWs)   bands (ev):

     0.1395   1.7350   4.1163   7.7603  18.6960  24.1625

          k = 0.5000 0.2500 0.0000 (   893 PWs)   bands (ev):

    -5.3313   6.4060   7.8654  10.7562  19.6454  23.4473

          k =-0.3750-0.6250 0.8750 (   892 PWs)   bands (ev):

    -3.3195   3.4796   6.6810   9.5580  20.9088  23.0782

          k = 0.3750 0.6250 0.8750 (   892 PWs)   bands (ev):

    -3.2949   3.0975   7.1524   9.4238  21.2644  23.1848

          k =-0.8750-0.3750 0.6250 (   892 PWs)   bands (ev):

    -3.3289   3.5426   7.2061   8.8674  20.6488  23.5053

          k = 0.2500 0.5000 0.7500 (   890 PWs)   bands (ev):

    -1.1820   0.4319   7.1096   8.7665  21.7434  22.9249

          k =-0.7500-0.2500 0.5000 (   890 PWs)   bands (ev):

    -1.4882   1.0912   7.3739   8.0842  20.6700  23.6327

          k =-0.2500-0.7500 1.0000 (   896 PWs)   bands (ev):

    -2.6149   4.0243   6.3355   7.5816  19.4632  21.9839

          k =-0.1250-0.6250 0.8750 (   895 PWs)   bands (ev):

    -0.4832   2.1846   4.8530   6.9617  20.5268  24.3780

          k = 0.1250 0.6250 0.8750 (   895 PWs)   bands (ev):

    -0.3018   1.6918   5.0183   7.1254  20.9707  24.0410

          k =-0.8750-0.1250 0.6250 (   895 PWs)   bands (ev):

    -0.5206   2.2410   5.1402   6.6270  20.4309  24.4629

          k = 0.0000-0.5000 0.7500 (   895 PWs)   bands (ev):

    -1.2815   3.0938   4.4271   7.6298  21.1772  24.5307

     highest occupied, lowest unoccupied level (ev):    13.8444   17.3863

!    total energy              =     -24.07001161 Ry
     estimated scf accuracy    <       0.00000007 Ry

     The total energy is the sum of the following terms:
     one-electron contribution =       8.18729964 Ry
     hartree contribution      =       1.94072802 Ry
     xc contribution           =      -8.67402602 Ry
     ewald contribution        =     -25.52401324 Ry

     convergence has been achieved in   5 iterations

     Forces acting on atoms (cartesian axes, Ry/au):

     atom    1 type  1   force =    -0.05698621   -0.05698621   -0.05698621
     atom    2 type  1   force =     0.05698621    0.05698621    0.05698621

     Total force =     0.139587     Total SCF correction =     0.000084

     BFGS Geometry Optimization
     Energy error            =      1.9E-02 Ry
     Gradient error          =      5.7E-02 Ry/Bohr

     number of scf cycles    =   1
     number of bfgs steps    =   0

     energy             new  =     -24.0700116080 Ry

     new trust radius        =       0.0987030034 bohr
     new conv_thr            =       0.0000010000 Ry


ATOMIC_POSITIONS (alat)
C               -0.0084424008       -0.0084424008       -0.0084424008
C                0.2484424008        0.2484424008        0.2484424008



     Writing config-only to output data dir ./output/diamond.save/ :
     XML data file
     NEW-OLD atomic charge density approx. for the potential

     total cpu time spent up to now is        2.0 secs

     Self-consistent Calculation

     iteration #  1     ecut=    78.00 Ry     beta= 0.70
     Davidson diagonalization with overlap
     c_bands:  1 eigenvalues not converged
     c_bands:  1 eigenvalues not converged
     c_bands:  1 eigenvalues not converged
     c_bands:  1 eigenvalues not converged
     c_bands:  1 eigenvalues not converged
     c_bands:  1 eigenvalues not converged
     c_bands:  1 eigenvalues not converged
     c_bands:  1 eigenvalues not converged
     ethr =  1.00E-06,  avg # of iterations = 13.2

     total cpu time spent up to now is        3.0 secs

     total energy              =     -24.07308704 Ry
     estimated scf accuracy    <       0.00169443 Ry

     iteration #  2     ecut=    78.00 Ry     beta= 0.70
     Davidson diagonalization with overlap
     ethr =  2.12E-05,  avg # of iterations =  1.7

     total cpu time spent up to now is        3.2 secs

     total energy              =     -24.07325376 Ry
     estimated scf accuracy    <       0.00003729 Ry

     iteration #  3     ecut=    78.00 Ry     beta= 0.70
     Davidson diagonalization with overlap
     c_bands:  1 eigenvalues not converged
     ethr =  4.66E-07,  avg # of iterations =  3.2

     total cpu time spent up to now is        3.6 secs

     total energy              =     -24.07326137 Ry
     estimated scf accuracy    <       0.00000202 Ry

     iteration #  4     ecut=    78.00 Ry     beta= 0.70
     Davidson diagonalization with overlap
     ethr =  2.52E-08,  avg # of iterations =  2.7

     total cpu time spent up to now is        3.9 secs

     End of self-consistent calculation

          k = 0.0000 0.0000 0.0000 (   893 PWs)   bands (ev):

    -8.1535  12.9128  12.9128  14.0392  19.2149  19.2149

          k =-0.1250 0.1250-0.1250 (   911 PWs)   bands (ev):

    -7.7233  10.6895  12.2796  13.1970  19.1460  20.1156

          k =-0.2500 0.2500-0.2500 (   896 PWs)   bands (ev):

    -6.4451   6.6057  11.1904  12.0019  20.4262  21.6126

          k =-0.3750 0.3750-0.3750 (   893 PWs)   bands (ev):

    -4.3832   2.5578  10.3983  11.1908  20.9737  22.1104

          k = 0.5000-0.5000 0.5000 (   886 PWs)   bands (ev):

    -2.3642  -0.1590  10.1207  10.9130  21.0474  22.2315

          k = 0.0000 0.2500 0.0000 (   897 PWs)   bands (ev):

    -7.5799  11.3227  11.4400  12.3021  18.4070  20.9888

          k =-0.1250 0.3750-0.1250 (   894 PWs)   bands (ev):

    -6.5848   8.0243  10.1691  11.7572  18.9065  22.4635

          k =-0.2500 0.5000-0.2500 (   892 PWs)   bands (ev):

    -4.7774   4.0750   9.4993  10.5076  20.0078  23.1229

          k = 0.6250-0.3750 0.6250 (   892 PWs)   bands (ev):

    -2.4317   0.6575   9.4710   9.4932  20.6256  23.3211

          k = 0.5000-0.2500 0.5000 (   889 PWs)   bands (ev):

    -3.2167   1.6902   9.0198  10.0620  21.2646  23.1171

          k = 0.3750-0.1250 0.3750 (   896 PWs)   bands (ev):

    -5.4668   5.4786   9.2042  11.1155  21.7931  21.9329

          k = 0.2500 0.0000 0.2500 (   903 PWs)   bands (ev):

    -7.0098   9.4364  10.1031  12.2008  20.3688  20.9944

          k = 0.0000 0.5000 0.0000 (   881 PWs)   bands (ev):

    -5.8780   8.6070   9.0060   9.4773  17.7268  23.4409

          k =-0.1250 0.6250-0.1250 (   887 PWs)   bands (ev):

    -4.3519   5.5540   8.2606   8.4931  18.3362  22.6799

          k = 0.7500-0.2500 0.7500 (   892 PWs)   bands (ev):

    -2.1391   2.3636   6.8774   8.2179  19.2118  24.6555

          k = 0.6250-0.1250 0.6250 (   890 PWs)   bands (ev):

    -1.4559   1.6390   5.7890   8.8744  20.0072  25.5386

          k = 0.5000 0.0000 0.5000 (   889 PWs)   bands (ev):

    -3.7105   4.7247   5.7077  10.0550  21.1119  23.6053

          k = 0.0000 0.7500 0.0000 (   886 PWs)   bands (ev):

    -3.1194   4.6777   7.4175   7.7047  17.4324  20.0397

          k = 0.8750-0.1250 0.8750 (   899 PWs)   bands (ev):

    -1.1540   2.5210   6.1863   7.2266  18.1605  20.4174

          k = 0.7500 0.0000 0.7500 (   890 PWs)   bands (ev):

     0.2147   1.6600   4.1116   7.7785  18.8800  24.0562

          k = 0.0000-1.0000 0.0000 (   934 PWs)   bands (ev):

     0.4372   0.6127   6.8658   7.1259  17.9803  18.1610

          k =-0.2500 0.5000 0.0000 (   893 PWs)   bands (ev):

    -5.3232   6.5764   7.7715  10.6823  19.6738  23.4657

          k = 0.6250-0.3750 0.8750 (   892 PWs)   bands (ev):

    -3.2986   3.3219   7.0172   9.3596  20.8908  23.3678

          k = 0.5000-0.2500 0.7500 (   890 PWs)   bands (ev):

    -1.3565   0.8318   7.1240   8.5195  21.2945  23.1486

          k = 0.7500-0.2500 1.0000 (   896 PWs)   bands (ev):

    -2.6055   4.1268   6.2679   7.5541  19.5133  21.9823

          k = 0.6250-0.1250 0.8750 (   895 PWs)   bands (ev):

    -0.3970   1.9636   5.1506   6.8137  20.6431  24.4059

          k = 0.5000 0.0000 0.7500 (   895 PWs)   bands (ev):

    -1.2508   3.0068   4.4818   7.6529  21.5078  24.2140

          k =-0.2500-1.0000 0.0000 (   896 PWs)   bands (ev):

     0.7559   0.9630   5.8518   6.1267  20.0443  20.2896

          k =-0.5000-1.0000 0.0000 (   892 PWs)   bands (ev):

     1.1716   1.4437   4.8270   5.1520  23.5048  24.2095

          k =-0.1250-0.1250-0.1250 (   911 PWs)   bands (ev):

    -7.7227  11.2878  12.3551  12.3551  19.9415  19.9415

          k =-0.2500-0.2500-0.2500 (   896 PWs)   bands (ev):

    -6.4452   6.9481  11.3683  11.3683  21.0910  21.0910

          k =-0.3750-0.3750-0.3750 (   893 PWs)   bands (ev):

    -4.4023   2.8257  10.6395  10.6395  21.5802  21.5813

          k = 0.5000 0.5000 0.5000 (   886 PWs)   bands (ev):

    -2.5247   0.2247  10.3829  10.3829  21.6289  21.6300

          k = 0.3750 0.1250-0.1250 (   894 PWs)   bands (ev):

    -6.5846   8.1008  10.4680  11.2811  19.1168  22.5836

          k =-0.3750-0.1250-0.1250 (   894 PWs)   bands (ev):

    -6.5844   8.5105  10.2588  11.0017  19.1813  22.5271

          k = 0.5000 0.2500-0.2500 (   892 PWs)   bands (ev):

    -4.7784   4.1168   9.6488  10.2586  20.3221  23.3091

          k =-0.5000-0.2500-0.2500 (   892 PWs)   bands (ev):

    -4.7866   4.3984   9.6501   9.9312  20.2630  23.2764

          k =-0.3750-0.6250 0.6250 (   892 PWs)   bands (ev):

    -2.4351   0.6730   8.9204  10.0486  20.8927  23.0908

          k = 0.3750 0.6250 0.6250 (   892 PWs)   bands (ev):

    -2.5380   1.0081   9.0289   9.6533  20.8184  23.0079

          k =-0.2500-0.5000 0.5000 (   889 PWs)   bands (ev):

    -3.2124   1.6733   8.5494  10.6458  21.2195  22.6340

          k = 0.2500 0.5000 0.5000 (   889 PWs)   bands (ev):

    -3.2603   1.9710   8.6119  10.2403  21.3904  22.4255

          k =-0.1250-0.3750 0.3750 (   896 PWs)   bands (ev):

    -5.4661   5.4208   8.8066  11.7492  20.7864  22.3214

          k = 0.1250 0.3750 0.3750 (   896 PWs)   bands (ev):

    -5.4693   5.7658   8.8103  11.2369  21.5347  21.8637

          k = 0.0000-0.2500 0.2500 (   903 PWs)   bands (ev):

    -7.0104   9.0616  10.0013  12.9094  19.5575  21.6713

          k = 0.6250 0.1250-0.1250 (   887 PWs)   bands (ev):

    -4.3534   5.7232   7.8879   8.6610  18.5042  22.5801

          k =-0.6250-0.1250-0.1250 (   887 PWs)   bands (ev):

    -4.3574   6.0390   7.8783   8.3142  18.4869  22.5953

          k =-0.2500-0.7500 0.7500 (   892 PWs)   bands (ev):

    -2.1461   2.4551   6.4317   8.5945  19.4664  24.6264

          k = 0.2500 0.7500 0.7500 (   892 PWs)   bands (ev):

    -2.1979   2.7650   6.4216   8.2933  19.3176  24.6501

          k =-0.1250-0.6250 0.6250 (   890 PWs)   bands (ev):

    -1.4292   1.6110   5.4691   9.2778  20.2128  24.8830

          k = 0.1250 0.6250 0.6250 (   890 PWs)   bands (ev):

    -1.5445   1.9972   5.4548   8.9373  20.0485  25.1509

          k = 0.0000-0.5000 0.5000 (   889 PWs)   bands (ev):

    -3.6979   4.4296   5.6779  10.5083  21.1330  23.2347

          k =-0.1250-0.8750 0.8750 (   899 PWs)   bands (ev):

    -1.1626   2.6084   5.8265   7.5124  18.3561  20.2294

          k = 0.1250 0.8750 0.8750 (   899 PWs)   bands (ev):

    -1.1885   2.6991   6.0037   7.2439  18.2381  20.3481

          k = 0.0000-0.7500 0.7500 (   890 PWs)   bands (ev):

     0.3940   1.4501   3.8877   8.0818  19.0740  23.9335

          k = 0.5000 0.2500 0.0000 (   893 PWs)   bands (ev):

    -5.3249   6.9308   7.8112  10.1496  19.9636  23.2060

          k =-0.3750-0.6250 0.8750 (   892 PWs)   bands (ev):

    -3.3070   3.4088   7.2445   8.9694  21.3102  22.9580

          k = 0.3750 0.6250 0.8750 (   892 PWs)   bands (ev):

    -3.3242   3.6832   6.9082   9.0450  21.2652  22.7625

          k =-0.8750-0.3750 0.6250 (   892 PWs)   bands (ev):

    -3.2999   3.3717   6.8301   9.5113  21.2129  22.9738

          k = 0.2500 0.5000 0.7500 (   890 PWs)   bands (ev):

    -1.5260   1.2625   6.8764   8.4739  21.5251  22.6256

          k =-0.7500-0.2500 0.5000 (   890 PWs)   bands (ev):

    -1.3522   0.8433   6.7158   8.9644  22.0311  22.2696

          k =-0.2500-0.7500 1.0000 (   896 PWs)   bands (ev):

    -2.6207   4.3935   6.3097   7.2085  19.6878  21.8008

          k =-0.1250-0.6250 0.8750 (   895 PWs)   bands (ev):

    -0.4201   2.0821   4.8752   6.9967  20.9018  24.0682

          k = 0.1250 0.6250 0.8750 (   895 PWs)   bands (ev):

    -0.5254   2.4092   4.8113   6.8139  20.7519  24.0885

          k =-0.8750-0.1250 0.6250 (   895 PWs)   bands (ev):

    -0.3911   2.0454   4.7040   7.2016  20.9145  24.0430

          k = 0.0000-0.5000 0.7500 (   895 PWs)   bands (ev):

    -1.1898   2.7464   4.3946   8.0025  21.6843  24.0537

     highest occupied, lowest unoccupied level (ev):    14.0392   17.4324

!    total energy              =     -24.07326176 Ry
     estimated scf accuracy    <          2.5E-09 Ry

     The total energy is the sum of the following terms:
     one-electron contribution =       8.19412660 Ry
     hartree contribution      =       1.93805114 Ry
     xc contribution           =      -8.67320523 Ry
     ewald contribution        =     -25.53223427 Ry

     convergence has been achieved in   4 iterations

     Forces acting on atoms (cartesian axes, Ry/au):

     atom    1 type  1   force =     0.03243136    0.03243136    0.03243136
     atom    2 type  1   force =    -0.03243136   -0.03243136   -0.03243136

     Total force =     0.079440     Total SCF correction =     0.000053
     Energy error            =      3.3E-03 Ry
     Gradient error          =      3.2E-02 Ry/Bohr

     number of scf cycles    =   2
     number of bfgs steps    =   1

     energy             old  =     -24.0700116080 Ry
     energy             new  =     -24.0732617574 Ry

     CASE: energy            _new < energy            _old

     new trust radius        =       0.0357991511 bohr
     new conv_thr            =       0.0000003243 Ry


ATOMIC_POSITIONS (alat)
C               -0.0053803787       -0.0053803787       -0.0053803787
C                0.2453803787        0.2453803787        0.2453803787



     Writing config-only to output data dir ./output/diamond.save/ :
     XML data file
     NEW-OLD atomic charge density approx. for the potential

     total cpu time spent up to now is        3.9 secs

     Self-consistent Calculation

     iteration #  1     ecut=    78.00 Ry     beta= 0.70
     Davidson diagonalization with overlap
     c_bands:  1 eigenvalues not converged
     ethr =  1.00E-06,  avg # of iterations =  9.9

     total cpu time spent up to now is        4.7 secs

     total energy              =     -24.07553612 Ry
     estimated scf accuracy    <       0.00019985 Ry

     iteration #  2     ecut=    78.00 Ry     beta= 0.70
     Davidson diagonalization with overlap
     ethr =  2.50E-06,  avg # of iterations =  1.7

     total cpu time spent up to now is        4.9 secs

     total energy              =     -24.07555633 Ry
     estimated scf accuracy    <       0.00000442 Ry

     iteration #  3     ecut=    78.00 Ry     beta= 0.70
     Davidson diagonalization with overlap
     ethr =  5.52E-08,  avg # of iterations =  2.1

     total cpu time spent up to now is        5.2 secs

     End of self-consistent calculation

          k = 0.0000 0.0000 0.0000 (   893 PWs)   bands (ev):

    -8.1501  13.2389  13.2389  13.3642  18.9297  18.9297

          k =-0.1250 0.1250-0.1250 (   911 PWs)   bands (ev):

    -7.7196  10.8554  12.5898  12.6896  19.6895  19.7892

          k =-0.2500 0.2500-0.2500 (   896 PWs)   bands (ev):

    -6.4411   6.6939  11.4968  11.5871  21.0240  21.4367

          k =-0.3750 0.3750-0.3750 (   893 PWs)   bands (ev):

    -4.3820   2.6227  10.7123  10.8007  21.6249  21.9755

          k = 0.5000-0.5000 0.5000 (   886 PWs)   bands (ev):

    -2.3942  -0.0698  10.4389  10.5273  21.7044  22.1208

          k = 0.0000 0.2500 0.0000 (   897 PWs)   bands (ev):

    -7.5763  11.5348  11.5807  11.9600  18.4853  21.0762

          k =-0.1250 0.3750-0.1250 (   894 PWs)   bands (ev):

    -6.5806   8.1839  10.3849  11.3055  19.1253  22.5961

          k =-0.2500 0.5000-0.2500 (   892 PWs)   bands (ev):

    -4.7748   4.1727   9.7333  10.1320  20.2890  23.3166

          k = 0.6250-0.3750 0.6250 (   892 PWs)   bands (ev):

    -2.4498   0.7452   9.1746   9.7268  20.9046  23.5215

          k = 0.5000-0.2500 0.5000 (   889 PWs)   bands (ev):

    -3.2180   1.7491   8.7410  10.3378  21.4936  22.5442

          k = 0.3750-0.1250 0.3750 (   896 PWs)   bands (ev):

    -5.4625   5.5271   8.9556  11.4040  21.4780  21.9312

          k = 0.2500 0.0000 0.2500 (   903 PWs)   bands (ev):

    -7.0063   9.3289  10.0379  12.4856  20.0845  21.3153

          k = 0.0000 0.5000 0.0000 (   881 PWs)   bands (ev):

    -5.8736   8.7613   9.1497   9.1878  17.7582  23.5625

          k =-0.1250 0.6250-0.1250 (   887 PWs)   bands (ev):

    -4.3485   5.7471   8.1162   8.4175  18.4766  22.6731

          k = 0.7500-0.2500 0.7500 (   892 PWs)   bands (ev):

    -2.1476   2.4966   6.5906   8.3894  19.3844  24.7447

          k = 0.6250-0.1250 0.6250 (   890 PWs)   bands (ev):

    -1.4551   1.7087   5.5809   9.0593  20.1547  25.1085

          k = 0.5000 0.0000 0.5000 (   889 PWs)   bands (ev):

    -3.6990   4.6097   5.6936  10.2471  21.2288  23.3295

          k = 0.0000 0.7500 0.0000 (   886 PWs)   bands (ev):

    -3.1131   4.7032   7.5357   7.5645  17.4591  20.0692

          k = 0.8750-0.1250 0.8750 (   899 PWs)   bands (ev):

    -1.1561   2.6110   5.9806   7.3518  18.2904  20.3492

          k = 0.7500 0.0000 0.7500 (   890 PWs)   bands (ev):

     0.3060   1.5772   4.0061   7.9082  18.9951  24.0556

          k = 0.0000-1.0000 0.0000 (   934 PWs)   bands (ev):

     0.5233   0.5457   6.9771   7.0041  18.0827  18.1083

          k =-0.2500 0.5000 0.0000 (   893 PWs)   bands (ev):

    -5.3193   6.7552   7.7956  10.4246  19.8646  23.3459

          k = 0.6250-0.3750 0.8750 (   892 PWs)   bands (ev):

    -3.3001   3.4381   7.0179   9.2198  21.2404  22.9870

          k = 0.5000-0.2500 0.7500 (   890 PWs)   bands (ev):

    -1.3862   0.9335   6.9972   8.5894  21.5920  22.7871

          k = 0.7500-0.2500 1.0000 (   896 PWs)   bands (ev):

    -2.6053   4.2593   6.3043   7.3726  19.6300  21.9362

          k = 0.6250-0.1250 0.8750 (   895 PWs)   bands (ev):

    -0.4185   2.1094   4.9210   6.9328  20.8297  24.2488

          k = 0.5000 0.0000 0.7500 (   895 PWs)   bands (ev):

    -1.2144   2.9023   4.4417   7.8010  21.6702  24.0810

          k =-0.2500-1.0000 0.0000 (   896 PWs)   bands (ev):

     0.8566   0.8828   5.9699   5.9988  20.1813  20.2131

          k =-0.5000-1.0000 0.0000 (   892 PWs)   bands (ev):

     1.3012   1.3350   4.9675   5.0024  23.9004  23.9823

          k =-0.1250-0.1250-0.1250 (   911 PWs)   bands (ev):

    -7.7195  10.9212  12.5991  12.5991  19.7690  19.7690

          k =-0.2500-0.2500-0.2500 (   896 PWs)   bands (ev):

    -6.4411   6.7324  11.5179  11.5179  21.0888  21.0888

          k =-0.3750-0.3750-0.3750 (   893 PWs)   bands (ev):

    -4.3843   2.6530  10.7406  10.7406  21.6839  21.6844

          k = 0.5000 0.5000 0.5000 (   886 PWs)   bands (ev):

    -2.4137  -0.0252  10.4696  10.4696  21.7611  21.7616

          k = 0.3750 0.1250-0.1250 (   894 PWs)   bands (ev):

    -6.5806   8.1934  10.4318  11.2384  19.1486  22.6705

          k =-0.3750-0.1250-0.1250 (   894 PWs)   bands (ev):

    -6.5806   8.2386  10.3953  11.2224  19.1497  22.6087

          k = 0.5000 0.2500-0.2500 (   892 PWs)   bands (ev):

    -4.7749   4.1776   9.7791  10.0747  20.3322  23.3620

          k =-0.5000-0.2500-0.2500 (   892 PWs)   bands (ev):

    -4.7759   4.2092   9.7506  10.0686  20.3113  23.3425

          k =-0.3750-0.6250 0.6250 (   892 PWs)   bands (ev):

    -2.4502   0.7470   9.1188   9.7825  20.9531  23.0967

          k = 0.3750 0.6250 0.6250 (   892 PWs)   bands (ev):

    -2.4624   0.7853   9.1235   9.7479  20.9214  23.1100

          k =-0.2500-0.5000 0.5000 (   889 PWs)   bands (ev):

    -3.2175   1.7471   8.6926  10.3980  21.5293  22.4462

          k = 0.2500 0.5000 0.5000 (   889 PWs)   bands (ev):

    -3.2231   1.7808   8.6959  10.3586  21.5024  22.4679

          k =-0.1250-0.3750 0.3750 (   896 PWs)   bands (ev):

    -5.4624   5.5202   8.9146  11.4707  21.3763  21.9560

          k = 0.1250 0.3750 0.3750 (   896 PWs)   bands (ev):

    -5.4628   5.5590   8.9122  11.4184  21.4335  21.9304

          k = 0.0000-0.2500 0.2500 (   903 PWs)   bands (ev):

    -7.0063   9.2755  10.0419  12.5585  20.0083  21.3880

          k = 0.6250 0.1250-0.1250 (   887 PWs)   bands (ev):

    -4.3487   5.7686   8.0537   8.4544  18.4975  22.6571

          k =-0.6250-0.1250-0.1250 (   887 PWs)   bands (ev):

    -4.3491   5.8031   8.0463   8.4236  18.4920  22.6618

          k =-0.2500-0.7500 0.7500 (   892 PWs)   bands (ev):

    -2.1484   2.5074   6.5432   8.4277  19.4198  24.7213

          k = 0.2500 0.7500 0.7500 (   892 PWs)   bands (ev):

    -2.1544   2.5422   6.5395   8.3980  19.3957  24.7338

          k =-0.1250-0.6250 0.6250 (   890 PWs)   bands (ev):

    -1.4521   1.7054   5.5469   9.1016  20.1880  25.0251

          k = 0.1250 0.6250 0.6250 (   890 PWs)   bands (ev):

    -1.4657   1.7495   5.5437   9.0665  20.1590  25.0665

          k = 0.0000-0.5000 0.5000 (   889 PWs)   bands (ev):

    -3.6975   4.5730   5.6952  10.2948  21.2555  23.2624

          k =-0.1250-0.8750 0.8750 (   899 PWs)   bands (ev):

    -1.1571   2.6211   5.9421   7.3813  18.3170  20.3232

          k = 0.1250 0.8750 0.8750 (   899 PWs)   bands (ev):

    -1.1601   2.6319   5.9595   7.3538  18.2993  20.3405

          k = 0.0000-0.7500 0.7500 (   890 PWs)   bands (ev):

     0.3273   1.5510   3.9839   7.9398  19.0233  24.0339

          k = 0.5000 0.2500 0.0000 (   893 PWs)   bands (ev):

    -5.3195   6.8004   7.7920  10.3688  19.8910  23.3207

          k =-0.3750-0.6250 0.8750 (   892 PWs)   bands (ev):

    -3.3011   3.4484   7.0395   9.1797  21.2920  22.9349

          k = 0.3750 0.6250 0.8750 (   892 PWs)   bands (ev):

    -3.3031   3.4790   7.0022   9.1888  21.2778  22.9192

          k =-0.8750-0.3750 0.6250 (   892 PWs)   bands (ev):

    -3.3003   3.4440   6.9946   9.2383  21.2983  22.9169

          k = 0.2500 0.5000 0.7500 (   890 PWs)   bands (ev):

    -1.4069   0.9835   6.9662   8.5885  21.6132  22.7286

          k =-0.7500-0.2500 0.5000 (   890 PWs)   bands (ev):

    -1.3857   0.9349   6.9475   8.6424  21.6955  22.6655

          k =-0.2500-0.7500 1.0000 (   896 PWs)   bands (ev):

    -2.6070   4.2911   6.3034   7.3380  19.6473  21.9165

          k =-0.1250-0.6250 0.8750 (   895 PWs)   bands (ev):

    -0.4210   2.1233   4.8913   6.9511  20.8652  24.1948

          k = 0.1250 0.6250 0.8750 (   895 PWs)   bands (ev):

    -0.4339   2.1611   4.8818   6.9336  20.8415  24.2056

          k =-0.8750-0.1250 0.6250 (   895 PWs)   bands (ev):

    -0.4178   2.1190   4.8708   6.9754  20.8694  24.1898

          k = 0.0000-0.5000 0.7500 (   895 PWs)   bands (ev):

    -1.2074   2.8704   4.4360   7.8378  21.7069  24.0440

     highest occupied, lowest unoccupied level (ev):    13.3642   17.4591

!    total energy              =     -24.07555728 Ry
     estimated scf accuracy    <       0.00000023 Ry

     The total energy is the sum of the following terms:
     one-electron contribution =       8.19788657 Ry
     hartree contribution      =       1.93671869 Ry
     xc contribution           =      -8.67281791 Ry
     ewald contribution        =     -25.53734463 Ry

     convergence has been achieved in   3 iterations

     Forces acting on atoms (cartesian axes, Ry/au):

     atom    1 type  1   force =     0.00385971    0.00385971    0.00385971
     atom    2 type  1   force =    -0.00385971   -0.00385971   -0.00385971

     Total force =     0.009454     Total SCF correction =     0.000146
     Energy error            =      2.3E-03 Ry
     Gradient error          =      3.9E-03 Ry/Bohr

     number of scf cycles    =   3
     number of bfgs steps    =   2

     energy             old  =     -24.0732617574 Ry
     energy             new  =     -24.0755572849 Ry

     CASE: energy            _new < energy            _old

     new trust radius        =       0.0048360613 bohr
     new conv_thr            =       0.0000000386 Ry


ATOMIC_POSITIONS (alat)
C               -0.0049667340       -0.0049667340       -0.0049667340
C                0.2449667340        0.2449667340        0.2449667340



     Writing config-only to output data dir ./output/diamond.save/ :
     XML data file
     NEW-OLD atomic charge density approx. for the potential

     total cpu time spent up to now is        5.3 secs

     Self-consistent Calculation

     iteration #  1     ecut=    78.00 Ry     beta= 0.70
     Davidson diagonalization with overlap
     ethr =  1.00E-06,  avg # of iterations =  4.9

     Threshold (ethr) on eigenvalues was too large:
     Diagonalizing with lowered threshold

     Davidson diagonalization with overlap
     ethr =  4.71E-08,  avg # of iterations =  1.9

     total cpu time spent up to now is        6.0 secs

     total energy              =     -24.07558648 Ry
     estimated scf accuracy    <       0.00000386 Ry

     iteration #  2     ecut=    78.00 Ry     beta= 0.70
     Davidson diagonalization with overlap
     ethr =  4.83E-08,  avg # of iterations =  1.6

     total cpu time spent up to now is        6.2 secs

     total energy              =     -24.07558689 Ry
     estimated scf accuracy    <       0.00000009 Ry

     iteration #  3     ecut=    78.00 Ry     beta= 0.70
     Davidson diagonalization with overlap
     ethr =  1.11E-09,  avg # of iterations =  2.6

     total cpu time spent up to now is        6.5 secs

     End of self-consistent calculation

          k = 0.0000 0.0000 0.0000 (   893 PWs)   bands (ev):

    -8.1501  13.2733  13.2841  13.2841  18.8894  18.8894

          k =-0.1250 0.1250-0.1250 (   911 PWs)   bands (ev):

    -7.7196  10.8738  12.6241  12.6327  19.7434  19.7524

          k =-0.2500 0.2500-0.2500 (   896 PWs)   bands (ev):

    -6.4410   6.7045  11.5315  11.5393  21.0938  21.4261

          k =-0.3750 0.3750-0.3750 (   893 PWs)   bands (ev):

    -4.3826   2.6310  10.7483  10.7560  21.7029  21.9680

          k = 0.5000-0.5000 0.5000 (   886 PWs)   bands (ev):

    -2.3994  -0.0577  10.4755  10.4832  21.7839  22.1152

          k = 0.0000 0.2500 0.0000 (   897 PWs)   bands (ev):

    -7.5762  11.5586  11.5632  11.9538  18.4863  21.0998

          k =-0.1250 0.3750-0.1250 (   894 PWs)   bands (ev):

    -6.5806   8.2042  10.4139  11.2456  19.1453  22.6230

          k =-0.2500 0.5000-0.2500 (   892 PWs)   bands (ev):

    -4.7751   4.1853   9.7650  10.0814  20.3195  23.3471

          k = 0.6250-0.3750 0.6250 (   892 PWs)   bands (ev):

    -2.4534   0.7571   9.1314   9.7618  20.9370  23.5512

          k = 0.5000-0.2500 0.5000 (   889 PWs)   bands (ev):

    -3.2190   1.7567   8.7028  10.3757  21.5186  22.4668

          k = 0.3750-0.1250 0.3750 (   896 PWs)   bands (ev):

    -5.4624   5.5321   8.9218  11.4438  21.4154  21.9396

          k = 0.2500 0.0000 0.2500 (   903 PWs)   bands (ev):

    -7.0063   9.3004  10.0401  12.5247  20.0446  21.3580

          k = 0.0000 0.5000 0.0000 (   881 PWs)   bands (ev):

    -5.8736   8.7647   9.1656   9.1685  17.7586  23.5639

          k =-0.1250 0.6250-0.1250 (   887 PWs)   bands (ev):

    -4.3487   5.7741   8.0640   8.4383  18.4925  22.6619

          k = 0.7500-0.2500 0.7500 (   892 PWs)   bands (ev):

    -2.1498   2.5149   6.5512   8.4123  19.4071  24.7299

          k = 0.6250-0.1250 0.6250 (   890 PWs)   bands (ev):

    -1.4563   1.7180   5.5525   9.0840  20.1746  25.0509

          k = 0.5000 0.0000 0.5000 (   889 PWs)   bands (ev):

    -3.6982   4.5899   5.6945  10.2728  21.2447  23.2914

          k = 0.0000 0.7500 0.0000 (   886 PWs)   bands (ev):

    -3.1130   4.7035   7.5487   7.5511  17.4595  20.0695

          k = 0.8750-0.1250 0.8750 (   899 PWs)   bands (ev):

    -1.1576   2.6222   5.9539   7.3682  18.3076  20.3330

          k = 0.7500 0.0000 0.7500 (   890 PWs)   bands (ev):

     0.3177   1.5631   3.9940   7.9252  19.0108  24.0444

          k = 0.0000-1.0000 0.0000 (   934 PWs)   bands (ev):

     0.5337   0.5356   6.9894   6.9916  18.0947  18.0969

          k =-0.2500 0.5000 0.0000 (   893 PWs)   bands (ev):

    -5.3194   6.7800   7.7937  10.3941  19.8796  23.3324

          k = 0.6250-0.3750 0.8750 (   892 PWs)   bands (ev):

    -3.3011   3.4536   7.0133   9.2053  21.2816  22.9345

          k = 0.5000-0.2500 0.7500 (   890 PWs)   bands (ev):

    -1.3916   0.9475   6.9754   8.6034  21.6263  22.7380

          k = 0.7500-0.2500 1.0000 (   896 PWs)   bands (ev):

    -2.6061   4.2767   6.3040   7.3535  19.6398  21.9259

          k = 0.6250-0.1250 0.8750 (   895 PWs)   bands (ev):

    -0.4230   2.1298   4.8888   6.9494  20.8539  24.2069

          k = 0.5000 0.0000 0.7500 (   895 PWs)   bands (ev):

    -1.2105   2.8851   4.4386   7.8208  21.6912  24.0600

          k =-0.2500-1.0000 0.0000 (   896 PWs)   bands (ev):

     0.8688   0.8709   5.9830   5.9855  20.1962  20.1989

          k =-0.5000-1.0000 0.0000 (   892 PWs)   bands (ev):

     1.3168   1.3196   4.9834   4.9864  23.9387  23.9461

          k =-0.1250-0.1250-0.1250 (   911 PWs)   bands (ev):

    -7.7196  10.8681  12.6319  12.6319  19.7452  19.7452

          k =-0.2500-0.2500-0.2500 (   896 PWs)   bands (ev):

    -6.4410   6.7012  11.5374  11.5374  21.0886  21.0886

          k =-0.3750-0.3750-0.3750 (   893 PWs)   bands (ev):

    -4.3824   2.6284  10.7535  10.7535  21.6982  21.6986

          k = 0.5000 0.5000 0.5000 (   886 PWs)   bands (ev):

    -2.3978  -0.0615  10.4805  10.4805  21.7793  21.7796

          k = 0.3750 0.1250-0.1250 (   894 PWs)   bands (ev):

    -6.5806   8.2033  10.4098  11.2515  19.1433  22.6321

          k =-0.3750-0.1250-0.1250 (   894 PWs)   bands (ev):

    -6.5806   8.1995  10.4130  11.2527  19.1433  22.6217

          k = 0.5000 0.2500-0.2500 (   892 PWs)   bands (ev):

    -4.7751   4.1849   9.7607  10.0867  20.3158  23.3882

          k =-0.5000-0.2500-0.2500 (   892 PWs)   bands (ev):

    -4.7751   4.1822   9.7635  10.0869  20.3178  23.3505

          k =-0.3750-0.6250 0.6250 (   892 PWs)   bands (ev):

    -2.4533   0.7569   9.1360   9.7572  20.9327  23.1259

          k = 0.3750 0.6250 0.6250 (   892 PWs)   bands (ev):

    -2.4523   0.7537   9.1357   9.7600  20.9357  23.1240

          k =-0.2500-0.5000 0.5000 (   889 PWs)   bands (ev):

    -3.2191   1.7568   8.7070  10.3706  21.5152  22.4761

          k = 0.2500 0.5000 0.5000 (   889 PWs)   bands (ev):

    -3.2186   1.7540   8.7067  10.3739  21.5180  22.4734

          k =-0.1250-0.3750 0.3750 (   896 PWs)   bands (ev):

    -5.4625   5.5327   8.9253  11.4381  21.4234  21.9389

          k = 0.1250 0.3750 0.3750 (   896 PWs)   bands (ev):

    -5.4624   5.5294   8.9255  11.4425  21.4192  21.9398

          k = 0.0000-0.2500 0.2500 (   903 PWs)   bands (ev):

    -7.0063   9.3051  10.0396  12.5185  20.0510  21.3492

          k = 0.6250 0.1250-0.1250 (   887 PWs)   bands (ev):

    -4.3487   5.7722   8.0692   8.4353  18.4908  22.6633

          k =-0.6250-0.1250-0.1250 (   887 PWs)   bands (ev):

    -4.3487   5.7693   8.0700   8.4378  18.4913  22.6629

          k =-0.2500-0.7500 0.7500 (   892 PWs)   bands (ev):

    -2.1497   2.5140   6.5552   8.4091  19.4041  24.7322

          k = 0.2500 0.7500 0.7500 (   892 PWs)   bands (ev):

    -2.1492   2.5110   6.5555   8.4116  19.4062  24.7311

          k =-0.1250-0.6250 0.6250 (   890 PWs)   bands (ev):

    -1.4565   1.7183   5.5554   9.0804  20.1717  25.0584

          k = 0.1250 0.6250 0.6250 (   890 PWs)   bands (ev):

    -1.4554   1.7146   5.5556   9.0834  20.1742  25.0545

          k = 0.0000-0.5000 0.5000 (   889 PWs)   bands (ev):

    -3.6983   4.5930   5.6944  10.2688  21.2423  23.2975

          k =-0.1250-0.8750 0.8750 (   899 PWs)   bands (ev):

    -1.1575   2.6214   5.9572   7.3657  18.3053  20.3353

          k = 0.1250 0.8750 0.8750 (   899 PWs)   bands (ev):

    -1.1573   2.6205   5.9557   7.3681  18.3069  20.3337

          k = 0.0000-0.7500 0.7500 (   890 PWs)   bands (ev):

     0.3160   1.5653   3.9959   7.9225  19.0084  24.0463

          k = 0.5000 0.2500 0.0000 (   893 PWs)   bands (ev):

    -5.3194   6.7761   7.7940  10.3988  19.8775  23.3343

          k =-0.3750-0.6250 0.8750 (   892 PWs)   bands (ev):

    -3.3011   3.4528   7.0115   9.2087  21.2772  22.9389

          k = 0.3750 0.6250 0.8750 (   892 PWs)   bands (ev):

    -3.3009   3.4502   7.0147   9.2080  21.2784  22.9402

          k =-0.8750-0.3750 0.6250 (   892 PWs)   bands (ev):

    -3.3011   3.4531   7.0153   9.2037  21.2764  22.9408

          k = 0.2500 0.5000 0.7500 (   890 PWs)   bands (ev):

    -1.3899   0.9433   6.9781   8.6034  21.6245  22.7431

          k =-0.7500-0.2500 0.5000 (   890 PWs)   bands (ev):

    -1.3916   0.9474   6.9797   8.5988  21.6173  22.7487

          k =-0.2500-0.7500 1.0000 (   896 PWs)   bands (ev):

    -2.6060   4.2741   6.3041   7.3564  19.6384  21.9276

          k =-0.1250-0.6250 0.8750 (   895 PWs)   bands (ev):

    -0.4228   2.1286   4.8913   6.9479  20.8509  24.2117

          k = 0.1250 0.6250 0.8750 (   895 PWs)   bands (ev):

    -0.4217   2.1254   4.8921   6.9493  20.8529  24.2107

          k =-0.8750-0.1250 0.6250 (   895 PWs)   bands (ev):

    -0.4231   2.1289   4.8930   6.9458  20.8505  24.2123

          k = 0.0000-0.5000 0.7500 (   895 PWs)   bands (ev):

    -1.2110   2.8878   4.4391   7.8177  21.6879  24.0635

     highest occupied, lowest unoccupied level (ev):    13.2841   17.4595

!    total energy              =     -24.07558692 Ry
     estimated scf accuracy    <          4.9E-09 Ry

     The total energy is the sum of the following terms:
     one-electron contribution =       8.19793831 Ry
     hartree contribution      =       1.93670022 Ry
     xc contribution           =      -8.67281302 Ry
     ewald contribution        =     -25.53741242 Ry

     convergence has been achieved in   3 iterations

     Forces acting on atoms (cartesian axes, Ry/au):

     atom    1 type  1   force =    -0.00034887   -0.00034887   -0.00034887
     atom    2 type  1   force =     0.00034887    0.00034887    0.00034887

     Total force =     0.000855     Total SCF correction =     0.000024
     Energy error            =      3.0E-05 Ry
     Gradient error          =      3.5E-04 Ry/Bohr

     bfgs converged in   4 scf cycles and   3 bfgs steps
     (criteria: energy <  1.0E-04 Ry, force <  1.0E-03 Ry/Bohr)

     End of BFGS Geometry Optimization

     Final energy             =     -24.0755869207 Ry

     File ./output/diamond.bfgs deleted, as requested
Begin final coordinates

ATOMIC_POSITIONS (alat)
C               -0.0049667340       -0.0049667340       -0.0049667340
C                0.2449667340        0.2449667340        0.2449667340
End final coordinates



     Writing all to output data dir ./output/diamond.save/ :
     XML data file, charge density, pseudopotentials, collected wavefunctions

     init_run     :      0.26s CPU      0.28s WALL (       1 calls)
     electrons    :      5.78s CPU      6.13s WALL (       4 calls)
     update_pot   :      0.01s CPU      0.02s WALL (       3 calls)
     forces       :      0.13s CPU      0.13s WALL (       4 calls)

     Called by init_run:
     wfcinit      :      0.17s CPU      0.18s WALL (       1 calls)
     potinit      :      0.02s CPU      0.02s WALL (       1 calls)
     hinit0       :      0.07s CPU      0.08s WALL (       1 calls)

     Called by electrons:
     c_bands      :      5.13s CPU      5.37s WALL (      16 calls)
     sum_band     :      0.59s CPU      0.68s WALL (      16 calls)
     v_of_rho     :      0.06s CPU      0.09s WALL (      19 calls)
     mix_rho      :      0.01s CPU      0.01s WALL (      16 calls)

     Called by c_bands:
     init_us_2    :      0.15s CPU      0.16s WALL (    2405 calls)
     cegterg      :      4.94s CPU      5.16s WALL (    1040 calls)

     Called by *egterg:
     cdiaghg      :      0.12s CPU      0.12s WALL (    4848 calls)
     h_psi        :      4.20s CPU      4.39s WALL (    5173 calls)
     g_psi        :      0.03s CPU      0.03s WALL (    4068 calls)

     Called by h_psi:
     h_psi:calbec :      0.26s CPU      0.27s WALL (    5173 calls)
     vloc_psi     :      3.68s CPU      3.85s WALL (    5173 calls)
     add_vuspsi   :      0.23s CPU      0.24s WALL (    5173 calls)

     General routines
     calbec       :      0.34s CPU      0.35s WALL (    6213 calls)
     fft          :      0.07s CPU      0.08s WALL (     234 calls)
     ffts         :      0.00s CPU      0.00s WALL (      16 calls)
     fftw         :      3.73s CPU      3.95s WALL (   49340 calls)

     Parallel routines

     PWSCF        :      6.21s CPU      6.60s WALL


   This run was terminated on:  12:40: 7  27Nov2025            

=------------------------------------------------------------------------------=
   JOB DONE.
=------------------------------------------------------------------------------=
