
     Program PWSCF v.7.3.1 starts on 27Nov2025 at 11:31:12 

     This program is part of the open-source Quantum ESPRESSO suite
     for quantum simulation of materials; please cite
         "P. Giannozzi et al., J. Phys.:Condens. Matter 21 395502 (2009);
         "P. Giannozzi et al., J. Phys.:Condens. Matter 29 465901 (2017);
         "P. Giannozzi et al., J. Chem. Phys. 152 154105 (2020);
          URL http://www.quantum-espresso.org", 
     in publications or presentations arising from this work. More details at
     http://www.quantum-espresso.org/quote

     Parallel version (MPI), running on     1 processors

     MPI processes distributed on     1 nodes
     744 MiB available memory on the printing compute node when the environment starts

     Waiting for input...
     Reading input from standard input

     Current dimensions of program PWSCF are:
     Max number of different atomic species (ntypx) = 10
     Max number of k-points (npk) =  40000
     Max angular momentum in pseudopotentials (lmaxx) =  4
     file H.upf: wavefunction(s)  1S renormalized

     Subspace diagonalization in iterative solution of the eigenvalue problem:
     a serial algorithm will be used


     G-vector sticks info
     --------------------
     sticks:   dense  smooth     PW     G-vecs:    dense   smooth      PW
     Sum        9941    9941   2477               744965   744965   93165

     Using Slab Decomposition



     bravais-lattice index     =            1
     lattice parameter (alat)  =      20.0000  a.u.
     unit-cell volume          =    8000.0000 (a.u.)^3
     number of atoms/cell      =            1
     number of atomic types    =            1
     number of electrons       =         1.00
     number of Kohn-Sham states=            2
     kinetic-energy cutoff     =      78.0000  Ry
     charge density cutoff     =     312.0000  Ry
     scf convergence threshold =      1.0E-06
     mixing beta               =       0.7000
     number of iterations used =            8  plain     mixing
     Exchange-correlation= SLA  PW   PBX  PBC
                           (   1   4   3   4   0   0   0)

     celldm(1)=  20.000000  celldm(2)=   0.000000  celldm(3)=   0.000000
     celldm(4)=   0.000000  celldm(5)=   0.000000  celldm(6)=   0.000000

     crystal axes: (cart. coord. in units of alat)
               a(1) = (   1.000000   0.000000   0.000000 )  
               a(2) = (   0.000000   1.000000   0.000000 )  
               a(3) = (   0.000000   0.000000   1.000000 )  

     reciprocal axes: (cart. coord. in units 2 pi/alat)
               b(1) = (  1.000000  0.000000  0.000000 )  
               b(2) = (  0.000000  1.000000  0.000000 )  
               b(3) = (  0.000000  0.000000  1.000000 )  


     PseudoPot. # 1 for H  read from file:
     ./pseudo/H.upf
     MD5 check sum: 3b3666f5801cbba62f2756aeeb36b147
     Pseudo is Projector augmented-wave, Zval =  1.0
     Generated using &quot;atomic&quot; code by A. Dal Corso  v.6.3MaX
     Shape of augmentation charge: PSQ
     Using radial grid of  929 points,  2 beta functions with: 
                l(1) =   0
                l(2) =   0
     Q(r) pseudized with 0 coefficients 


     atomic species   valence    mass     pseudopotential
     H                 1.00     1.00000     H ( 1.00)

     48 Sym. Ops., with inversion, found



   Cartesian axes

     site n.     atom                  positions (alat units)
         1        H      tau(   1) = (   0.0000000   0.0000000   0.0000000  )

     number of k points=     1  Gaussian smearing, width (Ry)=  0.0100
                       cart. coord. in units 2pi/alat
        k(    1) = (   0.0000000   0.0000000   0.0000000), wk =   2.0000000

     Dense  grid:   744965 G-vectors     FFT dimensions: ( 120, 120, 120)

     Estimated max dynamical RAM per process >     513.70 MB

     Initial potential from superposition of free atoms

     starting charge       1.0000, renormalised to       1.0000

     negative rho (up, down):  4.361E-05 0.000E+00
     Starting wfcs are    1 randomized atomic wfcs +    1 random wfcs
     Checking if some PAW data can be deallocated... 

     total cpu time spent up to now is        2.1 secs

     Self-consistent Calculation

     iteration #  1     ecut=    78.00 Ry     beta= 0.70
     Davidson diagonalization with overlap
     ethr =  1.00E-02,  avg # of iterations =  7.0

     Threshold (ethr) on eigenvalues was too large:
     Diagonalizing with lowered threshold

     Davidson diagonalization with overlap
     ethr =  4.02E-09,  avg # of iterations =  9.0

     negative rho (up, down):  2.173E-05 0.000E+00

     total cpu time spent up to now is        3.5 secs

     End of self-consistent calculation

          k = 0.0000 0.0000 0.0000 ( 93165 PWs)   bands (ev):

    -6.4662  -0.1940

     the Fermi energy is    -6.4662 ev

!    total energy              =      -0.92348492 Ry
     total all-electron energy =        -0.923481 Ry
     estimated scf accuracy    <          3.9E-09 Ry
     smearing contrib. (-TS)   =      -0.00564190 Ry
     internal energy E=F+TS    =      -0.91784303 Ry

     The total energy is F=E-TS. E is the sum of the following terms:
     one-electron contribution =      -0.71294664 Ry
     hartree contribution      =       0.43960790 Ry
     xc contribution           =      -0.50250120 Ry
     ewald contribution        =      -0.14186487 Ry
     one-center paw contrib.   =      -0.00013822 Ry

     convergence has been achieved in   1 iterations

     Writing all to output data dir ./hydrogen.save/ :
     XML data file, charge density, pseudopotentials, collected wavefunctions

     init_run     :      1.37s CPU      2.04s WALL (       1 calls)
     electrons    :      0.97s CPU      1.43s WALL (       1 calls)

     Called by init_run:
     wfcinit      :      0.44s CPU      0.59s WALL (       1 calls)
     potinit      :      0.31s CPU      0.40s WALL (       1 calls)
     hinit0       :      0.48s CPU      0.68s WALL (       1 calls)

     Called by electrons:
     c_bands      :      0.52s CPU      0.77s WALL (       2 calls)
     sum_band     :      0.16s CPU      0.24s WALL (       2 calls)
     v_of_rho     :      0.50s CPU      0.68s WALL (       2 calls)
     newd         :      0.06s CPU      0.10s WALL (       2 calls)
     PAW_pot      :      0.00s CPU      0.00s WALL (       2 calls)
     mix_rho      :      0.01s CPU      0.01s WALL (       2 calls)

     Called by c_bands:
     init_us_2    :      0.01s CPU      0.01s WALL (       5 calls)
     cegterg      :      0.52s CPU      0.76s WALL (       2 calls)

     Called by *egterg:
     cdiaghg      :      0.00s CPU      0.00s WALL (      17 calls)
     h_psi        :      0.89s CPU      1.25s WALL (      19 calls)
     s_psi        :      0.01s CPU      0.01s WALL (      19 calls)
     g_psi        :      0.00s CPU      0.00s WALL (      16 calls)

     Called by h_psi:
     h_psi:calbec :      0.01s CPU      0.01s WALL (      19 calls)
     vloc_psi     :      0.88s CPU      1.23s WALL (      19 calls)
     add_vuspsi   :      0.01s CPU      0.01s WALL (      19 calls)

     General routines
     calbec       :      0.01s CPU      0.01s WALL (      21 calls)
     fft          :      0.63s CPU      0.83s WALL (      22 calls)
     ffts         :      0.01s CPU      0.02s WALL (       2 calls)
     fftw         :      0.80s CPU      1.11s WALL (      58 calls)

     Parallel routines

     PWSCF        :      2.35s CPU      3.53s WALL


   This run was terminated on:  11:31:16  27Nov2025            

=------------------------------------------------------------------------------=
   JOB DONE.
=------------------------------------------------------------------------------=
